# vtk DataFile Version 3.0
pore-scale field varables
ASCII
DATASET POLYDATA 
POINTS 	15	FLOAT
0.000000e+00	0.000000e+00	0.000000e+00
0.000000e+00	0.000000e+00	1.000000e+00
0.000000e+00	0.000000e+00	2.000000e+00
1.000000e+00	0.000000e+00	0.000000e+00
1.000000e+00	0.000000e+00	1.000000e+00
1.000000e+00	0.000000e+00	2.000000e+00
2.000000e+00	0.000000e+00	0.000000e+00
2.000000e+00	0.000000e+00	1.000000e+00
2.000000e+00	0.000000e+00	2.000000e+00
3.000000e+00	0.000000e+00	0.000000e+00
3.000000e+00	0.000000e+00	1.000000e+00
3.000000e+00	0.000000e+00	2.000000e+00
4.000000e+00	0.000000e+00	0.000000e+00
4.000000e+00	0.000000e+00	1.000000e+00
4.000000e+00	0.000000e+00	2.000000e+00
LINES	18	54
2	0	3
2	1	4
2	2	5
2	3	4
2	3	6
2	4	5
2	4	7
2	5	8
2	6	7
2	6	9
2	7	8
2	7	10
2	8	11
2	9	12
2	9	10
2	10	13
2	10	11
2	11	14
POINT_DATA 15
SCALARS size_pb float
LOOKUP_TABLE default
1.000000e+00
1.000000e+00
1.000000e+00
1.000000e+00
1.000000e+00
1.000000e+00
1.000000e+00
1.000000e+00
1.000000e+00
1.000000e+00
1.000000e+00
1.000000e+00
1.000000e+00
1.000000e+00
1.000000e+00
