# vtk DataFile Version 3.0
pore-scale field varables
ASCII
DATASET POLYDATA 
POINTS 	45	FLOAT
0.000000e+00	0.000000e+00	0.000000e+00
0.000000e+00	0.000000e+00	2.000000e+00
0.000000e+00	0.000000e+00	4.000000e+00
0.000000e+00	2.000000e+00	0.000000e+00
0.000000e+00	2.000000e+00	2.000000e+00
0.000000e+00	2.000000e+00	4.000000e+00
0.000000e+00	4.000000e+00	0.000000e+00
0.000000e+00	4.000000e+00	2.000000e+00
0.000000e+00	4.000000e+00	4.000000e+00
2.000000e+00	0.000000e+00	0.000000e+00
2.000000e+00	0.000000e+00	2.000000e+00
2.000000e+00	0.000000e+00	4.000000e+00
2.000000e+00	2.000000e+00	0.000000e+00
2.000000e+00	2.000000e+00	2.000000e+00
2.000000e+00	2.000000e+00	4.000000e+00
2.000000e+00	4.000000e+00	0.000000e+00
2.000000e+00	4.000000e+00	2.000000e+00
2.000000e+00	4.000000e+00	4.000000e+00
4.000000e+00	0.000000e+00	0.000000e+00
4.000000e+00	0.000000e+00	2.000000e+00
4.000000e+00	0.000000e+00	4.000000e+00
4.000000e+00	2.000000e+00	0.000000e+00
4.000000e+00	2.000000e+00	2.000000e+00
4.000000e+00	2.000000e+00	4.000000e+00
4.000000e+00	4.000000e+00	0.000000e+00
4.000000e+00	4.000000e+00	2.000000e+00
4.000000e+00	4.000000e+00	4.000000e+00
6.000000e+00	0.000000e+00	0.000000e+00
6.000000e+00	0.000000e+00	2.000000e+00
6.000000e+00	0.000000e+00	4.000000e+00
6.000000e+00	2.000000e+00	0.000000e+00
6.000000e+00	2.000000e+00	2.000000e+00
6.000000e+00	2.000000e+00	4.000000e+00
6.000000e+00	4.000000e+00	0.000000e+00
6.000000e+00	4.000000e+00	2.000000e+00
6.000000e+00	4.000000e+00	4.000000e+00
8.000000e+00	0.000000e+00	0.000000e+00
8.000000e+00	0.000000e+00	2.000000e+00
8.000000e+00	0.000000e+00	4.000000e+00
8.000000e+00	2.000000e+00	0.000000e+00
8.000000e+00	2.000000e+00	2.000000e+00
8.000000e+00	2.000000e+00	4.000000e+00
8.000000e+00	4.000000e+00	0.000000e+00
8.000000e+00	4.000000e+00	2.000000e+00
8.000000e+00	4.000000e+00	4.000000e+00
LINES	148	444
2	0	9
2	1	10
2	2	11
2	3	12
2	4	13
2	5	14
2	6	15
2	7	16
2	8	17
2	9	10
2	9	13
2	9	19
2	9	21
2	10	12
2	10	13
2	10	14
2	10	18
2	10	19
2	10	20
2	10	22
2	11	13
2	11	14
2	11	19
2	11	20
2	11	23
2	11	9
2	12	13
2	12	16
2	12	18
2	12	21
2	12	22
2	12	24
2	13	15
2	13	16
2	13	17
2	13	19
2	13	21
2	13	23
2	13	25
2	14	16
2	14	20
2	14	22
2	14	23
2	14	26
2	14	12
2	15	16
2	15	21
2	15	24
2	15	25
2	15	9
2	16	17
2	16	22
2	16	24
2	16	25
2	16	26
2	16	10
2	17	23
2	17	25
2	17	26
2	17	11
2	17	15
2	18	22
2	18	27
2	18	28
2	18	30
2	19	21
2	19	22
2	19	23
2	19	27
2	19	28
2	19	29
2	19	31
2	20	22
2	20	23
2	20	28
2	20	29
2	20	32
2	20	18
2	21	22
2	21	24
2	21	25
2	21	27
2	21	30
2	21	31
2	21	33
2	22	23
2	22	24
2	22	25
2	22	26
2	22	28
2	22	30
2	22	31
2	22	32
2	22	34
2	23	25
2	23	26
2	23	29
2	23	31
2	23	35
2	24	25
2	24	30
2	24	33
2	24	34
2	24	18
2	25	31
2	25	33
2	25	34
2	25	35
2	26	32
2	26	34
2	26	35
2	26	20
2	26	24
2	27	36
2	27	28
2	27	30
2	27	31
2	28	37
2	28	29
2	28	30
2	28	31
2	28	32
2	29	38
2	29	31
2	29	32
2	29	27
2	30	39
2	30	31
2	30	33
2	30	34
2	31	40
2	31	32
2	31	33
2	31	34
2	31	35
2	32	41
2	32	34
2	32	35
2	32	30
2	33	42
2	33	34
2	33	27
2	34	43
2	34	35
2	34	28
2	35	44
2	35	29
2	35	33
POINT_DATA 45
SCALARS size_pb float
LOOKUP_TABLE default
1.000000e+00
1.000000e+00
1.000000e+00
1.000000e+00
1.000000e+00
1.000000e+00
1.000000e+00
1.000000e+00
1.000000e+00
1.000000e+00
1.000000e+00
1.000000e+00
1.000000e+00
1.000000e+00
1.000000e+00
1.000000e+00
1.000000e+00
1.000000e+00
1.000000e+00
1.000000e+00
1.000000e+00
1.000000e+00
1.000000e+00
1.000000e+00
1.000000e+00
1.000000e+00
1.000000e+00
1.000000e+00
1.000000e+00
1.000000e+00
1.000000e+00
1.000000e+00
1.000000e+00
1.000000e+00
1.000000e+00
1.000000e+00
1.000000e+00
1.000000e+00
1.000000e+00
1.000000e+00
1.000000e+00
1.000000e+00
1.000000e+00
1.000000e+00
1.000000e+00
