# vtk DataFile Version 3.0
pore-scale field varables
ASCII
DATASET POLYDATA 
POINTS 	100	FLOAT
0.000000e+00	0.000000e+00	0.000000e+00
0.000000e+00	1.000000e+00	0.000000e+00
0.000000e+00	2.000000e+00	0.000000e+00
0.000000e+00	3.000000e+00	0.000000e+00
0.000000e+00	4.000000e+00	0.000000e+00
0.000000e+00	5.000000e+00	0.000000e+00
0.000000e+00	6.000000e+00	0.000000e+00
0.000000e+00	7.000000e+00	0.000000e+00
0.000000e+00	8.000000e+00	0.000000e+00
0.000000e+00	9.000000e+00	0.000000e+00
1.000000e+00	0.000000e+00	0.000000e+00
1.000000e+00	1.000000e+00	0.000000e+00
1.000000e+00	2.000000e+00	0.000000e+00
1.000000e+00	3.000000e+00	0.000000e+00
1.000000e+00	4.000000e+00	0.000000e+00
1.000000e+00	5.000000e+00	0.000000e+00
1.000000e+00	6.000000e+00	0.000000e+00
1.000000e+00	7.000000e+00	0.000000e+00
1.000000e+00	8.000000e+00	0.000000e+00
1.000000e+00	9.000000e+00	0.000000e+00
2.000000e+00	0.000000e+00	0.000000e+00
2.000000e+00	1.000000e+00	0.000000e+00
2.000000e+00	2.000000e+00	0.000000e+00
2.000000e+00	3.000000e+00	0.000000e+00
2.000000e+00	4.000000e+00	0.000000e+00
2.000000e+00	5.000000e+00	0.000000e+00
2.000000e+00	6.000000e+00	0.000000e+00
2.000000e+00	7.000000e+00	0.000000e+00
2.000000e+00	8.000000e+00	0.000000e+00
2.000000e+00	9.000000e+00	0.000000e+00
3.000000e+00	0.000000e+00	0.000000e+00
3.000000e+00	1.000000e+00	0.000000e+00
3.000000e+00	2.000000e+00	0.000000e+00
3.000000e+00	3.000000e+00	0.000000e+00
3.000000e+00	4.000000e+00	0.000000e+00
3.000000e+00	5.000000e+00	0.000000e+00
3.000000e+00	6.000000e+00	0.000000e+00
3.000000e+00	7.000000e+00	0.000000e+00
3.000000e+00	8.000000e+00	0.000000e+00
3.000000e+00	9.000000e+00	0.000000e+00
4.000000e+00	0.000000e+00	0.000000e+00
4.000000e+00	1.000000e+00	0.000000e+00
4.000000e+00	2.000000e+00	0.000000e+00
4.000000e+00	3.000000e+00	0.000000e+00
4.000000e+00	4.000000e+00	0.000000e+00
4.000000e+00	5.000000e+00	0.000000e+00
4.000000e+00	6.000000e+00	0.000000e+00
4.000000e+00	7.000000e+00	0.000000e+00
4.000000e+00	8.000000e+00	0.000000e+00
4.000000e+00	9.000000e+00	0.000000e+00
5.000000e+00	0.000000e+00	0.000000e+00
5.000000e+00	1.000000e+00	0.000000e+00
5.000000e+00	2.000000e+00	0.000000e+00
5.000000e+00	3.000000e+00	0.000000e+00
5.000000e+00	4.000000e+00	0.000000e+00
5.000000e+00	5.000000e+00	0.000000e+00
5.000000e+00	6.000000e+00	0.000000e+00
5.000000e+00	7.000000e+00	0.000000e+00
5.000000e+00	8.000000e+00	0.000000e+00
5.000000e+00	9.000000e+00	0.000000e+00
6.000000e+00	0.000000e+00	0.000000e+00
6.000000e+00	1.000000e+00	0.000000e+00
6.000000e+00	2.000000e+00	0.000000e+00
6.000000e+00	3.000000e+00	0.000000e+00
6.000000e+00	4.000000e+00	0.000000e+00
6.000000e+00	5.000000e+00	0.000000e+00
6.000000e+00	6.000000e+00	0.000000e+00
6.000000e+00	7.000000e+00	0.000000e+00
6.000000e+00	8.000000e+00	0.000000e+00
6.000000e+00	9.000000e+00	0.000000e+00
7.000000e+00	0.000000e+00	0.000000e+00
7.000000e+00	1.000000e+00	0.000000e+00
7.000000e+00	2.000000e+00	0.000000e+00
7.000000e+00	3.000000e+00	0.000000e+00
7.000000e+00	4.000000e+00	0.000000e+00
7.000000e+00	5.000000e+00	0.000000e+00
7.000000e+00	6.000000e+00	0.000000e+00
7.000000e+00	7.000000e+00	0.000000e+00
7.000000e+00	8.000000e+00	0.000000e+00
7.000000e+00	9.000000e+00	0.000000e+00
8.000000e+00	0.000000e+00	0.000000e+00
8.000000e+00	1.000000e+00	0.000000e+00
8.000000e+00	2.000000e+00	0.000000e+00
8.000000e+00	3.000000e+00	0.000000e+00
8.000000e+00	4.000000e+00	0.000000e+00
8.000000e+00	5.000000e+00	0.000000e+00
8.000000e+00	6.000000e+00	0.000000e+00
8.000000e+00	7.000000e+00	0.000000e+00
8.000000e+00	8.000000e+00	0.000000e+00
8.000000e+00	9.000000e+00	0.000000e+00
9.000000e+00	0.000000e+00	0.000000e+00
9.000000e+00	1.000000e+00	0.000000e+00
9.000000e+00	2.000000e+00	0.000000e+00
9.000000e+00	3.000000e+00	0.000000e+00
9.000000e+00	4.000000e+00	0.000000e+00
9.000000e+00	5.000000e+00	0.000000e+00
9.000000e+00	6.000000e+00	0.000000e+00
9.000000e+00	7.000000e+00	0.000000e+00
9.000000e+00	8.000000e+00	0.000000e+00
9.000000e+00	9.000000e+00	0.000000e+00
LINES	288	864
2	0	10
2	1	11
2	2	12
2	3	13
2	4	14
2	5	15
2	6	16
2	7	17
2	8	18
2	9	19
2	10	11
2	10	20
2	10	21
2	11	12
2	11	20
2	11	21
2	11	22
2	12	13
2	12	21
2	12	22
2	12	23
2	13	14
2	13	22
2	13	23
2	13	24
2	14	15
2	14	23
2	14	24
2	14	25
2	15	16
2	15	24
2	15	25
2	15	26
2	16	17
2	16	25
2	16	26
2	16	27
2	17	18
2	17	26
2	17	27
2	17	28
2	18	19
2	18	27
2	18	28
2	18	29
2	19	28
2	19	29
2	20	21
2	20	30
2	20	31
2	21	22
2	21	30
2	21	31
2	21	32
2	22	23
2	22	31
2	22	32
2	22	33
2	23	24
2	23	32
2	23	33
2	23	34
2	24	25
2	24	33
2	24	34
2	24	35
2	25	26
2	25	34
2	25	35
2	25	36
2	26	27
2	26	35
2	26	36
2	26	37
2	27	28
2	27	36
2	27	37
2	27	38
2	28	29
2	28	37
2	28	38
2	28	39
2	29	38
2	29	39
2	30	31
2	30	40
2	30	41
2	31	32
2	31	40
2	31	41
2	31	42
2	32	33
2	32	41
2	32	42
2	32	43
2	33	34
2	33	42
2	33	43
2	33	44
2	34	35
2	34	43
2	34	44
2	34	45
2	35	36
2	35	44
2	35	45
2	35	46
2	36	37
2	36	45
2	36	46
2	36	47
2	37	38
2	37	46
2	37	47
2	37	48
2	38	39
2	38	47
2	38	48
2	38	49
2	39	48
2	39	49
2	40	41
2	40	50
2	40	51
2	41	42
2	41	50
2	41	51
2	41	52
2	42	43
2	42	51
2	42	52
2	42	53
2	43	44
2	43	52
2	43	53
2	43	54
2	44	45
2	44	53
2	44	54
2	44	55
2	45	46
2	45	54
2	45	55
2	45	56
2	46	47
2	46	55
2	46	56
2	46	57
2	47	48
2	47	56
2	47	57
2	47	58
2	48	49
2	48	57
2	48	58
2	48	59
2	49	58
2	49	59
2	50	51
2	50	60
2	50	61
2	51	52
2	51	60
2	51	61
2	51	62
2	52	53
2	52	61
2	52	62
2	52	63
2	53	54
2	53	62
2	53	63
2	53	64
2	54	55
2	54	63
2	54	64
2	54	65
2	55	56
2	55	64
2	55	65
2	55	66
2	56	57
2	56	65
2	56	66
2	56	67
2	57	58
2	57	66
2	57	67
2	57	68
2	58	59
2	58	67
2	58	68
2	58	69
2	59	68
2	59	69
2	60	61
2	60	70
2	60	71
2	61	62
2	61	70
2	61	71
2	61	72
2	62	63
2	62	71
2	62	72
2	62	73
2	63	64
2	63	72
2	63	73
2	63	74
2	64	65
2	64	73
2	64	74
2	64	75
2	65	66
2	65	74
2	65	75
2	65	76
2	66	67
2	66	75
2	66	76
2	66	77
2	67	68
2	67	76
2	67	77
2	67	78
2	68	69
2	68	77
2	68	78
2	68	79
2	69	78
2	69	79
2	70	71
2	70	80
2	70	81
2	71	72
2	71	80
2	71	81
2	71	82
2	72	73
2	72	81
2	72	82
2	72	83
2	73	74
2	73	82
2	73	83
2	73	84
2	74	75
2	74	83
2	74	84
2	74	85
2	75	76
2	75	84
2	75	85
2	75	86
2	76	77
2	76	85
2	76	86
2	76	87
2	77	78
2	77	86
2	77	87
2	77	88
2	78	79
2	78	87
2	78	88
2	78	89
2	79	88
2	79	89
2	80	90
2	80	81
2	81	91
2	81	82
2	82	92
2	82	83
2	83	93
2	83	84
2	84	94
2	84	85
2	85	95
2	85	86
2	86	96
2	86	87
2	87	97
2	87	88
2	88	98
2	88	89
2	89	99
POINT_DATA 100
SCALARS size_pb float
LOOKUP_TABLE default
1.000000e+00
1.000000e+00
1.000000e+00
1.000000e+00
1.000000e+00
1.000000e+00
1.000000e+00
1.000000e+00
1.000000e+00
1.000000e+00
1.000000e+00
1.000000e+00
1.000000e+00
1.000000e+00
1.000000e+00
1.000000e+00
1.000000e+00
1.000000e+00
1.000000e+00
1.000000e+00
1.000000e+00
1.000000e+00
1.000000e+00
1.000000e+00
1.000000e+00
1.000000e+00
1.000000e+00
1.000000e+00
1.000000e+00
1.000000e+00
1.000000e+00
1.000000e+00
1.000000e+00
1.000000e+00
1.000000e+00
1.000000e+00
1.000000e+00
1.000000e+00
1.000000e+00
1.000000e+00
1.000000e+00
1.000000e+00
1.000000e+00
1.000000e+00
1.000000e+00
1.000000e+00
1.000000e+00
1.000000e+00
1.000000e+00
1.000000e+00
1.000000e+00
1.000000e+00
1.000000e+00
1.000000e+00
1.000000e+00
1.000000e+00
1.000000e+00
1.000000e+00
1.000000e+00
1.000000e+00
1.000000e+00
1.000000e+00
1.000000e+00
1.000000e+00
1.000000e+00
1.000000e+00
1.000000e+00
1.000000e+00
1.000000e+00
1.000000e+00
1.000000e+00
1.000000e+00
1.000000e+00
1.000000e+00
1.000000e+00
1.000000e+00
1.000000e+00
1.000000e+00
1.000000e+00
1.000000e+00
1.000000e+00
1.000000e+00
1.000000e+00
1.000000e+00
1.000000e+00
1.000000e+00
1.000000e+00
1.000000e+00
1.000000e+00
1.000000e+00
1.000000e+00
1.000000e+00
1.000000e+00
1.000000e+00
1.000000e+00
1.000000e+00
1.000000e+00
1.000000e+00
1.000000e+00
1.000000e+00
