# vtk DataFile Version 3.0
pore-scale field varables
ASCII
DATASET POLYDATA 
POINTS 	54	FLOAT
0.000000e+00	0.000000e+00	0.000000e+00
0.000000e+00	2.000000e+00	0.000000e+00
0.000000e+00	4.000000e+00	0.000000e+00
0.000000e+00	6.000000e+00	0.000000e+00
0.000000e+00	8.000000e+00	0.000000e+00
0.000000e+00	1.000000e+01	0.000000e+00
0.000000e+00	1.200000e+01	0.000000e+00
0.000000e+00	1.400000e+01	0.000000e+00
0.000000e+00	1.600000e+01	0.000000e+00
2.000000e+00	0.000000e+00	0.000000e+00
2.000000e+00	2.000000e+00	0.000000e+00
2.000000e+00	4.000000e+00	0.000000e+00
2.000000e+00	6.000000e+00	0.000000e+00
2.000000e+00	8.000000e+00	0.000000e+00
2.000000e+00	1.000000e+01	0.000000e+00
2.000000e+00	1.200000e+01	0.000000e+00
2.000000e+00	1.400000e+01	0.000000e+00
2.000000e+00	1.600000e+01	0.000000e+00
4.000000e+00	0.000000e+00	0.000000e+00
4.000000e+00	2.000000e+00	0.000000e+00
4.000000e+00	4.000000e+00	0.000000e+00
4.000000e+00	6.000000e+00	0.000000e+00
4.000000e+00	8.000000e+00	0.000000e+00
4.000000e+00	1.000000e+01	0.000000e+00
4.000000e+00	1.200000e+01	0.000000e+00
4.000000e+00	1.400000e+01	0.000000e+00
4.000000e+00	1.600000e+01	0.000000e+00
6.000000e+00	0.000000e+00	0.000000e+00
6.000000e+00	2.000000e+00	0.000000e+00
6.000000e+00	4.000000e+00	0.000000e+00
6.000000e+00	6.000000e+00	0.000000e+00
6.000000e+00	8.000000e+00	0.000000e+00
6.000000e+00	1.000000e+01	0.000000e+00
8.000000e+00	2.000000e+00	0.000000e+00
8.000000e+00	4.000000e+00	0.000000e+00
8.000000e+00	8.000000e+00	0.000000e+00
8.000000e+00	1.000000e+01	0.000000e+00
1.000000e+01	2.000000e+00	0.000000e+00
1.000000e+01	4.000000e+00	0.000000e+00
1.000000e+01	6.000000e+00	0.000000e+00
1.000000e+01	8.000000e+00	0.000000e+00
1.200000e+01	0.000000e+00	0.000000e+00
1.200000e+01	2.000000e+00	0.000000e+00
1.200000e+01	4.000000e+00	0.000000e+00
1.200000e+01	6.000000e+00	0.000000e+00
1.400000e+01	0.000000e+00	0.000000e+00
1.400000e+01	2.000000e+00	0.000000e+00
1.400000e+01	4.000000e+00	0.000000e+00
1.400000e+01	6.000000e+00	0.000000e+00
1.400000e+01	8.000000e+00	0.000000e+00
1.600000e+01	6.000000e+00	0.000000e+00
1.600000e+01	8.000000e+00	0.000000e+00
1.800000e+01	6.000000e+00	0.000000e+00
1.800000e+01	8.000000e+00	0.000000e+00
LINES	57	171
2	0	9
2	1	10
2	2	11
2	3	12
2	4	13
2	5	14
2	6	15
2	7	16
2	8	17
2	9	10
2	10	11
2	11	20
2	12	13
2	12	21
2	13	14
2	13	22
2	14	15
2	14	23
2	15	16
2	15	24
2	16	17
2	16	25
2	18	19
2	18	27
2	19	20
2	19	28
2	20	21
2	21	30
2	22	23
2	22	31
2	23	24
2	23	32
2	24	25
2	25	26
2	27	28
2	29	30
2	29	34
2	33	37
2	34	38
2	35	36
2	35	40
2	37	38
2	38	39
2	39	40
2	39	44
2	41	42
2	41	45
2	43	44
2	43	47
2	45	46
2	46	47
2	47	48
2	48	49
2	48	50
2	50	52
2	50	51
2	51	53
POINT_DATA 54
SCALARS size_pb float
LOOKUP_TABLE default
1.000000e+00
1.000000e+00
1.000000e+00
1.000000e+00
1.000000e+00
1.000000e+00
1.000000e+00
1.000000e+00
1.000000e+00
1.000000e+00
1.000000e+00
1.000000e+00
1.000000e+00
1.000000e+00
1.000000e+00
1.000000e+00
1.000000e+00
1.000000e+00
1.000000e+00
1.000000e+00
1.000000e+00
1.000000e+00
1.000000e+00
1.000000e+00
1.000000e+00
1.000000e+00
1.000000e+00
1.000000e+00
1.000000e+00
1.000000e+00
1.000000e+00
1.000000e+00
1.000000e+00
1.000000e+00
1.000000e+00
1.000000e+00
1.000000e+00
1.000000e+00
1.000000e+00
1.000000e+00
1.000000e+00
1.000000e+00
1.000000e+00
1.000000e+00
1.000000e+00
1.000000e+00
1.000000e+00
1.000000e+00
1.000000e+00
1.000000e+00
1.000000e+00
1.000000e+00
1.000000e+00
1.000000e+00
