# vtk DataFile Version 3.0
pore-scale field varables
ASCII
DATASET POLYDATA 
POINTS 	1000	FLOAT
0.000000e+00	0.000000e+00	0.000000e+00
0.000000e+00	0.000000e+00	2.000000e+00
0.000000e+00	0.000000e+00	4.000000e+00
0.000000e+00	0.000000e+00	6.000000e+00
0.000000e+00	0.000000e+00	8.000000e+00
0.000000e+00	0.000000e+00	1.000000e+01
0.000000e+00	0.000000e+00	1.200000e+01
0.000000e+00	0.000000e+00	1.400000e+01
0.000000e+00	0.000000e+00	1.600000e+01
0.000000e+00	0.000000e+00	1.800000e+01
0.000000e+00	2.000000e+00	0.000000e+00
0.000000e+00	2.000000e+00	2.000000e+00
0.000000e+00	2.000000e+00	4.000000e+00
0.000000e+00	2.000000e+00	6.000000e+00
0.000000e+00	2.000000e+00	8.000000e+00
0.000000e+00	2.000000e+00	1.000000e+01
0.000000e+00	2.000000e+00	1.200000e+01
0.000000e+00	2.000000e+00	1.400000e+01
0.000000e+00	2.000000e+00	1.600000e+01
0.000000e+00	2.000000e+00	1.800000e+01
0.000000e+00	4.000000e+00	0.000000e+00
0.000000e+00	4.000000e+00	2.000000e+00
0.000000e+00	4.000000e+00	4.000000e+00
0.000000e+00	4.000000e+00	6.000000e+00
0.000000e+00	4.000000e+00	8.000000e+00
0.000000e+00	4.000000e+00	1.000000e+01
0.000000e+00	4.000000e+00	1.200000e+01
0.000000e+00	4.000000e+00	1.400000e+01
0.000000e+00	4.000000e+00	1.600000e+01
0.000000e+00	4.000000e+00	1.800000e+01
0.000000e+00	6.000000e+00	0.000000e+00
0.000000e+00	6.000000e+00	2.000000e+00
0.000000e+00	6.000000e+00	4.000000e+00
0.000000e+00	6.000000e+00	6.000000e+00
0.000000e+00	6.000000e+00	8.000000e+00
0.000000e+00	6.000000e+00	1.000000e+01
0.000000e+00	6.000000e+00	1.200000e+01
0.000000e+00	6.000000e+00	1.400000e+01
0.000000e+00	6.000000e+00	1.600000e+01
0.000000e+00	6.000000e+00	1.800000e+01
0.000000e+00	8.000000e+00	0.000000e+00
0.000000e+00	8.000000e+00	2.000000e+00
0.000000e+00	8.000000e+00	4.000000e+00
0.000000e+00	8.000000e+00	6.000000e+00
0.000000e+00	8.000000e+00	8.000000e+00
0.000000e+00	8.000000e+00	1.000000e+01
0.000000e+00	8.000000e+00	1.200000e+01
0.000000e+00	8.000000e+00	1.400000e+01
0.000000e+00	8.000000e+00	1.600000e+01
0.000000e+00	8.000000e+00	1.800000e+01
0.000000e+00	1.000000e+01	0.000000e+00
0.000000e+00	1.000000e+01	2.000000e+00
0.000000e+00	1.000000e+01	4.000000e+00
0.000000e+00	1.000000e+01	6.000000e+00
0.000000e+00	1.000000e+01	8.000000e+00
0.000000e+00	1.000000e+01	1.000000e+01
0.000000e+00	1.000000e+01	1.200000e+01
0.000000e+00	1.000000e+01	1.400000e+01
0.000000e+00	1.000000e+01	1.600000e+01
0.000000e+00	1.000000e+01	1.800000e+01
0.000000e+00	1.200000e+01	0.000000e+00
0.000000e+00	1.200000e+01	2.000000e+00
0.000000e+00	1.200000e+01	4.000000e+00
0.000000e+00	1.200000e+01	6.000000e+00
0.000000e+00	1.200000e+01	8.000000e+00
0.000000e+00	1.200000e+01	1.000000e+01
0.000000e+00	1.200000e+01	1.200000e+01
0.000000e+00	1.200000e+01	1.400000e+01
0.000000e+00	1.200000e+01	1.600000e+01
0.000000e+00	1.200000e+01	1.800000e+01
0.000000e+00	1.400000e+01	0.000000e+00
0.000000e+00	1.400000e+01	2.000000e+00
0.000000e+00	1.400000e+01	4.000000e+00
0.000000e+00	1.400000e+01	6.000000e+00
0.000000e+00	1.400000e+01	8.000000e+00
0.000000e+00	1.400000e+01	1.000000e+01
0.000000e+00	1.400000e+01	1.200000e+01
0.000000e+00	1.400000e+01	1.400000e+01
0.000000e+00	1.400000e+01	1.600000e+01
0.000000e+00	1.400000e+01	1.800000e+01
0.000000e+00	1.600000e+01	0.000000e+00
0.000000e+00	1.600000e+01	2.000000e+00
0.000000e+00	1.600000e+01	4.000000e+00
0.000000e+00	1.600000e+01	6.000000e+00
0.000000e+00	1.600000e+01	8.000000e+00
0.000000e+00	1.600000e+01	1.000000e+01
0.000000e+00	1.600000e+01	1.200000e+01
0.000000e+00	1.600000e+01	1.400000e+01
0.000000e+00	1.600000e+01	1.600000e+01
0.000000e+00	1.600000e+01	1.800000e+01
0.000000e+00	1.800000e+01	0.000000e+00
0.000000e+00	1.800000e+01	2.000000e+00
0.000000e+00	1.800000e+01	4.000000e+00
0.000000e+00	1.800000e+01	6.000000e+00
0.000000e+00	1.800000e+01	8.000000e+00
0.000000e+00	1.800000e+01	1.000000e+01
0.000000e+00	1.800000e+01	1.200000e+01
0.000000e+00	1.800000e+01	1.400000e+01
0.000000e+00	1.800000e+01	1.600000e+01
0.000000e+00	1.800000e+01	1.800000e+01
2.000000e+00	0.000000e+00	0.000000e+00
2.000000e+00	0.000000e+00	2.000000e+00
2.000000e+00	0.000000e+00	4.000000e+00
2.000000e+00	0.000000e+00	6.000000e+00
2.000000e+00	0.000000e+00	8.000000e+00
2.000000e+00	0.000000e+00	1.000000e+01
2.000000e+00	0.000000e+00	1.200000e+01
2.000000e+00	0.000000e+00	1.400000e+01
2.000000e+00	0.000000e+00	1.600000e+01
2.000000e+00	0.000000e+00	1.800000e+01
2.000000e+00	2.000000e+00	0.000000e+00
2.000000e+00	2.000000e+00	2.000000e+00
2.000000e+00	2.000000e+00	4.000000e+00
2.000000e+00	2.000000e+00	6.000000e+00
2.000000e+00	2.000000e+00	8.000000e+00
2.000000e+00	2.000000e+00	1.000000e+01
2.000000e+00	2.000000e+00	1.200000e+01
2.000000e+00	2.000000e+00	1.400000e+01
2.000000e+00	2.000000e+00	1.600000e+01
2.000000e+00	2.000000e+00	1.800000e+01
2.000000e+00	4.000000e+00	0.000000e+00
2.000000e+00	4.000000e+00	2.000000e+00
2.000000e+00	4.000000e+00	4.000000e+00
2.000000e+00	4.000000e+00	6.000000e+00
2.000000e+00	4.000000e+00	8.000000e+00
2.000000e+00	4.000000e+00	1.000000e+01
2.000000e+00	4.000000e+00	1.200000e+01
2.000000e+00	4.000000e+00	1.400000e+01
2.000000e+00	4.000000e+00	1.600000e+01
2.000000e+00	4.000000e+00	1.800000e+01
2.000000e+00	6.000000e+00	0.000000e+00
2.000000e+00	6.000000e+00	2.000000e+00
2.000000e+00	6.000000e+00	4.000000e+00
2.000000e+00	6.000000e+00	6.000000e+00
2.000000e+00	6.000000e+00	8.000000e+00
2.000000e+00	6.000000e+00	1.000000e+01
2.000000e+00	6.000000e+00	1.200000e+01
2.000000e+00	6.000000e+00	1.400000e+01
2.000000e+00	6.000000e+00	1.600000e+01
2.000000e+00	6.000000e+00	1.800000e+01
2.000000e+00	8.000000e+00	0.000000e+00
2.000000e+00	8.000000e+00	2.000000e+00
2.000000e+00	8.000000e+00	4.000000e+00
2.000000e+00	8.000000e+00	6.000000e+00
2.000000e+00	8.000000e+00	8.000000e+00
2.000000e+00	8.000000e+00	1.000000e+01
2.000000e+00	8.000000e+00	1.200000e+01
2.000000e+00	8.000000e+00	1.400000e+01
2.000000e+00	8.000000e+00	1.600000e+01
2.000000e+00	8.000000e+00	1.800000e+01
2.000000e+00	1.000000e+01	0.000000e+00
2.000000e+00	1.000000e+01	2.000000e+00
2.000000e+00	1.000000e+01	4.000000e+00
2.000000e+00	1.000000e+01	6.000000e+00
2.000000e+00	1.000000e+01	8.000000e+00
2.000000e+00	1.000000e+01	1.000000e+01
2.000000e+00	1.000000e+01	1.200000e+01
2.000000e+00	1.000000e+01	1.400000e+01
2.000000e+00	1.000000e+01	1.600000e+01
2.000000e+00	1.000000e+01	1.800000e+01
2.000000e+00	1.200000e+01	0.000000e+00
2.000000e+00	1.200000e+01	2.000000e+00
2.000000e+00	1.200000e+01	4.000000e+00
2.000000e+00	1.200000e+01	6.000000e+00
2.000000e+00	1.200000e+01	8.000000e+00
2.000000e+00	1.200000e+01	1.000000e+01
2.000000e+00	1.200000e+01	1.200000e+01
2.000000e+00	1.200000e+01	1.400000e+01
2.000000e+00	1.200000e+01	1.600000e+01
2.000000e+00	1.200000e+01	1.800000e+01
2.000000e+00	1.400000e+01	0.000000e+00
2.000000e+00	1.400000e+01	2.000000e+00
2.000000e+00	1.400000e+01	4.000000e+00
2.000000e+00	1.400000e+01	6.000000e+00
2.000000e+00	1.400000e+01	8.000000e+00
2.000000e+00	1.400000e+01	1.000000e+01
2.000000e+00	1.400000e+01	1.200000e+01
2.000000e+00	1.400000e+01	1.400000e+01
2.000000e+00	1.400000e+01	1.600000e+01
2.000000e+00	1.400000e+01	1.800000e+01
2.000000e+00	1.600000e+01	0.000000e+00
2.000000e+00	1.600000e+01	2.000000e+00
2.000000e+00	1.600000e+01	4.000000e+00
2.000000e+00	1.600000e+01	6.000000e+00
2.000000e+00	1.600000e+01	8.000000e+00
2.000000e+00	1.600000e+01	1.000000e+01
2.000000e+00	1.600000e+01	1.200000e+01
2.000000e+00	1.600000e+01	1.400000e+01
2.000000e+00	1.600000e+01	1.600000e+01
2.000000e+00	1.600000e+01	1.800000e+01
2.000000e+00	1.800000e+01	0.000000e+00
2.000000e+00	1.800000e+01	2.000000e+00
2.000000e+00	1.800000e+01	4.000000e+00
2.000000e+00	1.800000e+01	6.000000e+00
2.000000e+00	1.800000e+01	8.000000e+00
2.000000e+00	1.800000e+01	1.000000e+01
2.000000e+00	1.800000e+01	1.200000e+01
2.000000e+00	1.800000e+01	1.400000e+01
2.000000e+00	1.800000e+01	1.600000e+01
2.000000e+00	1.800000e+01	1.800000e+01
4.000000e+00	0.000000e+00	0.000000e+00
4.000000e+00	0.000000e+00	2.000000e+00
4.000000e+00	0.000000e+00	4.000000e+00
4.000000e+00	0.000000e+00	6.000000e+00
4.000000e+00	0.000000e+00	8.000000e+00
4.000000e+00	0.000000e+00	1.000000e+01
4.000000e+00	0.000000e+00	1.200000e+01
4.000000e+00	0.000000e+00	1.400000e+01
4.000000e+00	0.000000e+00	1.600000e+01
4.000000e+00	0.000000e+00	1.800000e+01
4.000000e+00	2.000000e+00	0.000000e+00
4.000000e+00	2.000000e+00	2.000000e+00
4.000000e+00	2.000000e+00	4.000000e+00
4.000000e+00	2.000000e+00	6.000000e+00
4.000000e+00	2.000000e+00	8.000000e+00
4.000000e+00	2.000000e+00	1.000000e+01
4.000000e+00	2.000000e+00	1.200000e+01
4.000000e+00	2.000000e+00	1.400000e+01
4.000000e+00	2.000000e+00	1.600000e+01
4.000000e+00	2.000000e+00	1.800000e+01
4.000000e+00	4.000000e+00	0.000000e+00
4.000000e+00	4.000000e+00	2.000000e+00
4.000000e+00	4.000000e+00	4.000000e+00
4.000000e+00	4.000000e+00	6.000000e+00
4.000000e+00	4.000000e+00	8.000000e+00
4.000000e+00	4.000000e+00	1.000000e+01
4.000000e+00	4.000000e+00	1.200000e+01
4.000000e+00	4.000000e+00	1.400000e+01
4.000000e+00	4.000000e+00	1.600000e+01
4.000000e+00	4.000000e+00	1.800000e+01
4.000000e+00	6.000000e+00	0.000000e+00
4.000000e+00	6.000000e+00	2.000000e+00
4.000000e+00	6.000000e+00	4.000000e+00
4.000000e+00	6.000000e+00	6.000000e+00
4.000000e+00	6.000000e+00	8.000000e+00
4.000000e+00	6.000000e+00	1.000000e+01
4.000000e+00	6.000000e+00	1.200000e+01
4.000000e+00	6.000000e+00	1.400000e+01
4.000000e+00	6.000000e+00	1.600000e+01
4.000000e+00	6.000000e+00	1.800000e+01
4.000000e+00	8.000000e+00	0.000000e+00
4.000000e+00	8.000000e+00	2.000000e+00
4.000000e+00	8.000000e+00	4.000000e+00
4.000000e+00	8.000000e+00	6.000000e+00
4.000000e+00	8.000000e+00	8.000000e+00
4.000000e+00	8.000000e+00	1.000000e+01
4.000000e+00	8.000000e+00	1.200000e+01
4.000000e+00	8.000000e+00	1.400000e+01
4.000000e+00	8.000000e+00	1.600000e+01
4.000000e+00	8.000000e+00	1.800000e+01
4.000000e+00	1.000000e+01	0.000000e+00
4.000000e+00	1.000000e+01	2.000000e+00
4.000000e+00	1.000000e+01	4.000000e+00
[...]
POINT_DATA 1000
SCALARS size_pb float
LOOKUP_TABLE default
1.000000e+00
1.000000e+00
1.000000e+00
1.000000e+00
1.000000e+00
1.000000e+00
1.000000e+00
1.000000e+00
1.000000e+00
1.000000e+00
1.000000e+00
1.000000e+00
1.000000e+00
1.000000e+00
1.000000e+00
1.000000e+00
1.000000e+00
1.000000e+00
1.000000e+00
1.000000e+00
1.000000e+00
1.000000e+00
1.000000e+00
1.000000e+00
1.000000e+00
1.000000e+00
1.000000e+00
1.000000e+00
1.000000e+00
1.000000e+00
1.000000e+00
1.000000e+00
1.000000e+00
1.000000e+00
1.000000e+00
1.000000e+00
1.000000e+00
1.000000e+00
1.000000e+00
1.000000e+00
1.000000e+00
1.000000e+00
1.000000e+00
1.000000e+00
1.000000e+00
1.000000e+00
1.000000e+00
1.000000e+00
1.000000e+00
1.000000e+00
1.000000e+00
1.000000e+00
1.000000e+00
1.000000e+00
1.000000e+00
1.000000e+00
1.000000e+00
1.000000e+00
1.000000e+00
1.000000e+00
1.000000e+00
1.000000e+00
1.000000e+00
1.000000e+00
1.000000e+00
1.000000e+00
1.000000e+00
1.000000e+00
1.000000e+00
1.000000e+00
1.000000e+00
1.000000e+00
1.000000e+00
1.000000e+00
1.000000e+00
1.000000e+00
1.000000e+00
1.000000e+00
1.000000e+00
1.000000e+00
1.000000e+00
1.000000e+00
1.000000e+00
1.000000e+00
1.000000e+00
1.000000e+00
1.000000e+00
1.000000e+00
1.000000e+00
1.000000e+00
1.000000e+00
1.000000e+00
1.000000e+00
1.000000e+00
1.000000e+00
1.000000e+00
1.000000e+00
1.000000e+00
1.000000e+00
1.000000e+00
1.000000e+00
1.000000e+00
1.000000e+00
1.000000e+00
1.000000e+00
1.000000e+00
1.000000e+00
1.000000e+00
1.000000e+00
1.000000e+00
1.000000e+00
1.000000e+00
1.000000e+00
1.000000e+00
1.000000e+00
1.000000e+00
1.000000e+00
1.000000e+00
1.000000e+00
1.000000e+00
1.000000e+00
1.000000e+00
1.000000e+00
1.000000e+00
1.000000e+00
1.000000e+00
1.000000e+00
1.000000e+00
1.000000e+00
1.000000e+00
1.000000e+00
1.000000e+00
1.000000e+00
1.000000e+00
1.000000e+00
1.000000e+00
1.000000e+00
1.000000e+00
1.000000e+00
1.000000e+00
1.000000e+00
1.000000e+00
1.000000e+00
1.000000e+00
1.000000e+00
1.000000e+00
1.000000e+00
1.000000e+00
1.000000e+00
1.000000e+00
1.000000e+00
1.000000e+00
1.000000e+00
1.000000e+00
1.000000e+00
1.000000e+00
1.000000e+00
1.000000e+00
1.000000e+00
1.000000e+00
1.000000e+00
1.000000e+00
1.000000e+00
1.000000e+00
1.000000e+00
1.000000e+00
1.000000e+00
1.000000e+00
1.000000e+00
1.000000e+00
1.000000e+00
1.000000e+00
1.000000e+00
1.000000e+00
1.000000e+00
1.000000e+00
1.000000e+00
1.000000e+00
1.000000e+00
1.000000e+00
1.000000e+00
1.000000e+00
1.000000e+00
1.000000e+00
1.000000e+00
1.000000e+00
1.000000e+00
1.000000e+00
1.000000e+00
1.000000e+00
1.000000e+00
1.000000e+00
1.000000e+00
1.000000e+00
1.000000e+00
1.000000e+00
1.000000e+00
1.000000e+00
1.000000e+00
1.000000e+00
1.000000e+00
1.000000e+00
1.000000e+00
1.000000e+00
1.000000e+00
1.000000e+00
1.000000e+00
1.000000e+00
1.000000e+00
1.000000e+00
1.000000e+00
1.000000e+00
1.000000e+00
1.000000e+00
1.000000e+00
1.000000e+00
1.000000e+00
1.000000e+00
1.000000e+00
1.000000e+00
1.000000e+00
1.000000e+00
1.000000e+00
1.000000e+00
1.000000e+00
1.000000e+00
1.000000e+00
1.000000e+00
1.000000e+00
1.000000e+00
1.000000e+00
1.000000e+00
1.000000e+00
1.000000e+00
1.000000e+00
1.000000e+00
1.000000e+00
1.000000e+00
1.000000e+00
1.000000e+00
1.000000e+00
1.000000e+00
1.000000e+00
1.000000e+00
1.000000e+00
1.000000e+00
1.000000e+00
1.000000e+00
1.000000e+00
1.000000e+00
1.000000e+00
1.000000e+00
1.000000e+00
1.000000e+00
1.000000e+00
1.000000e+00
1.000000e+00
1.000000e+00
1.000000e+00
1.000000e+00
1.000000e+00
1.000000e+00
1.000000e+00
1.000000e+00
1.000000e+00
1.000000e+00
1.000000e+00
1.000000e+00
1.000000e+00
1.000000e+00
1.000000e+00
1.000000e+00
1.000000e+00
1.000000e+00
1.000000e+00
1.000000e+00
1.000000e+00
1.000000e+00
1.000000e+00
1.000000e+00
1.000000e+00
1.000000e+00
1.000000e+00
1.000000e+00
1.000000e+00
1.000000e+00
1.000000e+00
1.000000e+00
1.000000e+00
1.000000e+00
1.000000e+00
1.000000e+00
1.000000e+00
1.000000e+00
1.000000e+00
1.000000e+00
1.000000e+00
1.000000e+00
1.000000e+00
1.000000e+00
1.000000e+00
1.000000e+00
1.000000e+00
1.000000e+00
1.000000e+00
1.000000e+00
1.000000e+00
1.000000e+00
1.000000e+00
1.000000e+00
1.000000e+00
1.000000e+00
1.000000e+00
1.000000e+00
1.000000e+00
1.000000e+00
1.000000e+00
1.000000e+00
1.000000e+00
1.000000e+00
1.000000e+00
1.000000e+00
1.000000e+00
1.000000e+00
1.000000e+00
1.000000e+00
1.000000e+00
1.000000e+00
1.000000e+00
1.000000e+00
1.000000e+00
1.000000e+00
1.000000e+00
1.000000e+00
1.000000e+00
1.000000e+00
1.000000e+00
1.000000e+00
1.000000e+00
1.000000e+00
1.000000e+00
1.000000e+00
1.000000e+00
1.000000e+00
1.000000e+00
1.000000e+00
1.000000e+00
1.000000e+00
1.000000e+00
1.000000e+00
1.000000e+00
1.000000e+00
1.000000e+00
1.000000e+00
1.000000e+00
1.000000e+00
1.000000e+00
1.000000e+00
1.000000e+00
1.000000e+00
1.000000e+00
1.000000e+00
1.000000e+00
1.000000e+00
1.000000e+00
1.000000e+00
1.000000e+00
1.000000e+00
1.000000e+00
1.000000e+00
1.000000e+00
1.000000e+00
1.000000e+00
1.000000e+00
1.000000e+00
1.000000e+00
1.000000e+00
1.000000e+00
1.000000e+00
1.000000e+00
1.000000e+00
1.000000e+00
1.000000e+00
1.000000e+00
1.000000e+00
1.000000e+00
1.000000e+00
1.000000e+00
1.000000e+00
1.000000e+00
1.000000e+00
1.000000e+00
1.000000e+00
1.000000e+00
1.000000e+00
1.000000e+00
1.000000e+00
1.000000e+00
1.000000e+00
1.000000e+00
1.000000e+00
1.000000e+00
1.000000e+00
1.000000e+00
1.000000e+00
1.000000e+00
1.000000e+00
1.000000e+00
1.000000e+00
1.000000e+00
1.000000e+00
1.000000e+00
1.000000e+00
1.000000e+00
1.000000e+00
1.000000e+00
1.000000e+00
1.000000e+00
1.000000e+00
1.000000e+00
1.000000e+00
1.000000e+00
1.000000e+00
1.000000e+00
1.000000e+00
1.000000e+00
1.000000e+00
1.000000e+00
1.000000e+00
1.000000e+00
1.000000e+00
1.000000e+00
1.000000e+00
1.000000e+00
1.000000e+00
1.000000e+00
1.000000e+00
1.000000e+00
1.000000e+00
1.000000e+00
1.000000e+00
1.000000e+00
1.000000e+00
1.000000e+00
1.000000e+00
1.000000e+00
1.000000e+00
1.000000e+00
1.000000e+00
1.000000e+00
1.000000e+00
1.000000e+00
1.000000e+00
1.000000e+00
1.000000e+00
1.000000e+00
1.000000e+00
1.000000e+00
1.000000e+00
1.000000e+00
1.000000e+00
1.000000e+00
1.000000e+00
1.000000e+00
1.000000e+00
1.000000e+00
1.000000e+00
1.000000e+00
1.000000e+00
1.000000e+00
1.000000e+00
1.000000e+00
1.000000e+00
1.000000e+00
1.000000e+00
1.000000e+00
1.000000e+00
1.000000e+00
1.000000e+00
1.000000e+00
1.000000e+00
1.000000e+00
1.000000e+00
1.000000e+00
1.000000e+00
1.000000e+00
1.000000e+00
1.000000e+00
1.000000e+00
1.000000e+00
1.000000e+00
1.000000e+00
1.000000e+00
1.000000e+00
1.000000e+00
1.000000e+00
1.000000e+00
1.000000e+00
1.000000e+00
1.000000e+00
1.000000e+00
1.000000e+00
1.000000e+00
1.000000e+00
1.000000e+00
1.000000e+00
1.000000e+00
1.000000e+00
1.000000e+00
1.000000e+00
1.000000e+00
1.000000e+00
1.000000e+00
1.000000e+00
1.000000e+00
1.000000e+00
1.000000e+00
1.000000e+00
1.000000e+00
1.000000e+00
1.000000e+00
1.000000e+00
1.000000e+00
1.000000e+00
1.000000e+00
1.000000e+00
1.000000e+00
1.000000e+00
1.000000e+00
1.000000e+00
1.000000e+00
1.000000e+00
1.000000e+00
1.000000e+00
1.000000e+00
1.000000e+00
1.000000e+00
1.000000e+00
1.000000e+00
1.000000e+00
1.000000e+00
1.000000e+00
1.000000e+00
1.000000e+00
1.000000e+00
1.000000e+00
1.000000e+00
1.000000e+00
1.000000e+00
1.000000e+00
1.000000e+00
1.000000e+00
1.000000e+00
1.000000e+00
1.000000e+00
1.000000e+00
1.000000e+00
1.000000e+00
1.000000e+00
1.000000e+00
1.000000e+00
1.000000e+00
1.000000e+00
1.000000e+00
1.000000e+00
1.000000e+00
1.000000e+00
1.000000e+00
1.000000e+00
1.000000e+00
1.000000e+00
1.000000e+00
1.000000e+00
1.000000e+00
1.000000e+00
1.000000e+00
1.000000e+00
1.000000e+00
1.000000e+00
1.000000e+00
1.000000e+00
1.000000e+00
1.000000e+00
1.000000e+00
1.000000e+00
1.000000e+00
1.000000e+00
1.000000e+00
1.000000e+00
1.000000e+00
1.000000e+00
1.000000e+00
1.000000e+00
1.000000e+00
1.000000e+00
1.000000e+00
1.000000e+00
1.000000e+00
1.000000e+00
1.000000e+00
1.000000e+00
1.000000e+00
1.000000e+00
1.000000e+00
1.000000e+00
1.000000e+00
1.000000e+00
1.000000e+00
1.000000e+00
1.000000e+00
1.000000e+00
1.000000e+00
1.000000e+00
1.000000e+00
1.000000e+00
1.000000e+00
1.000000e+00
1.000000e+00
1.000000e+00
1.000000e+00
1.000000e+00
1.000000e+00
1.000000e+00
1.000000e+00
1.000000e+00
1.000000e+00
1.000000e+00
1.000000e+00
1.000000e+00
1.000000e+00
1.000000e+00
1.000000e+00
1.000000e+00
1.000000e+00
1.000000e+00
1.000000e+00
1.000000e+00
1.000000e+00
1.000000e+00
1.000000e+00
1.000000e+00
1.000000e+00
1.000000e+00
1.000000e+00
1.000000e+00
1.000000e+00
1.000000e+00
1.000000e+00
1.000000e+00
1.000000e+00
1.000000e+00
1.000000e+00
1.000000e+00
1.000000e+00
1.000000e+00
1.000000e+00
1.000000e+00
1.000000e+00
1.000000e+00
1.000000e+00
1.000000e+00
1.000000e+00
1.000000e+00
1.000000e+00
1.000000e+00
1.000000e+00
1.000000e+00
1.000000e+00
1.000000e+00
1.000000e+00
1.000000e+00
1.000000e+00
1.000000e+00
1.000000e+00
1.000000e+00
1.000000e+00
1.000000e+00
1.000000e+00
1.000000e+00
1.000000e+00
1.000000e+00
1.000000e+00
1.000000e+00
1.000000e+00
1.000000e+00
1.000000e+00
1.000000e+00
1.000000e+00
1.000000e+00
1.000000e+00
1.000000e+00
1.000000e+00
1.000000e+00
1.000000e+00
1.000000e+00
1.000000e+00
1.000000e+00
1.000000e+00
1.000000e+00
1.000000e+00
1.000000e+00
1.000000e+00
1.000000e+00
1.000000e+00
1.000000e+00
1.000000e+00
1.000000e+00
1.000000e+00
1.000000e+00
1.000000e+00
1.000000e+00
1.000000e+00
1.000000e+00
1.000000e+00
1.000000e+00
1.000000e+00
1.000000e+00
1.000000e+00
1.000000e+00
1.000000e+00
1.000000e+00
1.000000e+00
1.000000e+00
1.000000e+00
1.000000e+00
1.000000e+00
1.000000e+00
1.000000e+00
1.000000e+00
1.000000e+00
1.000000e+00
1.000000e+00
1.000000e+00
1.000000e+00
1.000000e+00
1.000000e+00
1.000000e+00
1.000000e+00
1.000000e+00
1.000000e+00
1.000000e+00
1.000000e+00
1.000000e+00
1.000000e+00
1.000000e+00
1.000000e+00
1.000000e+00
1.000000e+00
1.000000e+00
1.000000e+00
1.000000e+00
1.000000e+00
1.000000e+00
1.000000e+00
1.000000e+00
1.000000e+00
1.000000e+00
1.000000e+00
1.000000e+00
1.000000e+00
1.000000e+00
1.000000e+00
1.000000e+00
1.000000e+00
1.000000e+00
1.000000e+00
1.000000e+00
1.000000e+00
1.000000e+00
1.000000e+00
1.000000e+00
1.000000e+00
1.000000e+00
1.000000e+00
1.000000e+00
1.000000e+00
1.000000e+00
1.000000e+00
1.000000e+00
1.000000e+00
1.000000e+00
1.000000e+00
1.000000e+00
1.000000e+00
1.000000e+00
1.000000e+00
1.000000e+00
1.000000e+00
1.000000e+00
1.000000e+00
1.000000e+00
1.000000e+00
1.000000e+00
1.000000e+00
1.000000e+00
1.000000e+00
1.000000e+00
1.000000e+00
1.000000e+00
1.000000e+00
1.000000e+00
1.000000e+00
1.000000e+00
1.000000e+00
1.000000e+00
1.000000e+00
1.000000e+00
1.000000e+00
1.000000e+00
1.000000e+00
1.000000e+00
1.000000e+00
1.000000e+00
1.000000e+00
1.000000e+00
1.000000e+00
1.000000e+00
1.000000e+00
1.000000e+00
1.000000e+00
1.000000e+00
1.000000e+00
1.000000e+00
1.000000e+00
1.000000e+00
1.000000e+00
1.000000e+00
1.000000e+00
1.000000e+00
1.000000e+00
1.000000e+00
1.000000e+00
1.000000e+00
1.000000e+00
1.000000e+00
1.000000e+00
1.000000e+00
1.000000e+00
1.000000e+00
1.000000e+00
1.000000e+00
1.000000e+00
1.000000e+00
1.000000e+00
1.000000e+00
1.000000e+00
1.000000e+00
1.000000e+00
1.000000e+00
1.000000e+00
1.000000e+00
1.000000e+00
1.000000e+00
1.000000e+00
1.000000e+00
1.000000e+00
1.000000e+00
1.000000e+00
1.000000e+00
1.000000e+00
1.000000e+00
1.000000e+00
1.000000e+00
1.000000e+00
1.000000e+00
1.000000e+00
1.000000e+00
1.000000e+00
1.000000e+00
1.000000e+00
1.000000e+00
1.000000e+00
1.000000e+00
1.000000e+00
1.000000e+00
1.000000e+00
1.000000e+00
1.000000e+00
1.000000e+00
1.000000e+00
1.000000e+00
1.000000e+00
1.000000e+00
1.000000e+00
1.000000e+00
1.000000e+00
1.000000e+00
1.000000e+00
1.000000e+00
1.000000e+00
1.000000e+00
1.000000e+00
1.000000e+00
1.000000e+00
1.000000e+00
1.000000e+00
1.000000e+00
1.000000e+00
1.000000e+00
1.000000e+00
1.000000e+00
1.000000e+00
1.000000e+00
1.000000e+00
1.000000e+00
1.000000e+00
1.000000e+00
1.000000e+00
1.000000e+00
1.000000e+00
1.000000e+00
1.000000e+00
1.000000e+00
1.000000e+00
1.000000e+00
1.000000e+00
1.000000e+00
1.000000e+00
1.000000e+00
1.000000e+00
1.000000e+00
1.000000e+00
1.000000e+00
1.000000e+00
1.000000e+00
1.000000e+00
1.000000e+00
1.000000e+00
1.000000e+00
1.000000e+00
1.000000e+00
1.000000e+00
1.000000e+00
1.000000e+00
1.000000e+00
1.000000e+00
1.000000e+00
1.000000e+00
1.000000e+00
1.000000e+00
1.000000e+00
1.000000e+00
1.000000e+00
1.000000e+00
1.000000e+00
1.000000e+00
1.000000e+00
1.000000e+00
1.000000e+00
1.000000e+00
1.000000e+00
1.000000e+00
1.000000e+00
1.000000e+00
1.000000e+00
1.000000e+00
1.000000e+00
1.000000e+00
1.000000e+00
1.000000e+00
1.000000e+00
1.000000e+00
1.000000e+00
1.000000e+00
1.000000e+00
1.000000e+00
1.000000e+00
1.000000e+00
1.000000e+00
1.000000e+00
1.000000e+00
1.000000e+00
1.000000e+00
1.000000e+00
1.000000e+00
1.000000e+00
1.000000e+00
1.000000e+00
1.000000e+00
1.000000e+00
1.000000e+00
1.000000e+00
1.000000e+00
1.000000e+00
1.000000e+00
1.000000e+00
1.000000e+00
1.000000e+00
1.000000e+00
1.000000e+00
1.000000e+00
1.000000e+00
1.000000e+00
1.000000e+00
1.000000e+00
1.000000e+00
1.000000e+00
1.000000e+00
1.000000e+00
1.000000e+00
