# vtk DataFile Version 3.0
pore-scale field varables
ASCII
DATASET POLYDATA 
POINTS 	100	FLOAT
0.000000e+00	0.000000e+00	0.000000e+00
0.000000e+00	0.000000e+00	1.000000e-04
0.000000e+00	0.000000e+00	2.000000e-04
0.000000e+00	0.000000e+00	3.000000e-04
0.000000e+00	0.000000e+00	4.000000e-04
0.000000e+00	0.000000e+00	5.000000e-04
0.000000e+00	0.000000e+00	6.000000e-04
0.000000e+00	0.000000e+00	7.000000e-04
0.000000e+00	0.000000e+00	8.000000e-04
0.000000e+00	0.000000e+00	9.000000e-04
1.000000e-04	0.000000e+00	0.000000e+00
1.000000e-04	0.000000e+00	1.000000e-04
1.000000e-04	0.000000e+00	2.000000e-04
1.000000e-04	0.000000e+00	3.000000e-04
1.000000e-04	0.000000e+00	4.000000e-04
1.000000e-04	0.000000e+00	5.000000e-04
1.000000e-04	0.000000e+00	6.000000e-04
1.000000e-04	0.000000e+00	7.000000e-04
1.000000e-04	0.000000e+00	8.000000e-04
1.000000e-04	0.000000e+00	9.000000e-04
2.000000e-04	0.000000e+00	0.000000e+00
2.000000e-04	0.000000e+00	1.000000e-04
2.000000e-04	0.000000e+00	2.000000e-04
2.000000e-04	0.000000e+00	3.000000e-04
2.000000e-04	0.000000e+00	4.000000e-04
2.000000e-04	0.000000e+00	5.000000e-04
2.000000e-04	0.000000e+00	6.000000e-04
2.000000e-04	0.000000e+00	7.000000e-04
2.000000e-04	0.000000e+00	8.000000e-04
2.000000e-04	0.000000e+00	9.000000e-04
3.000000e-04	0.000000e+00	0.000000e+00
3.000000e-04	0.000000e+00	1.000000e-04
3.000000e-04	0.000000e+00	2.000000e-04
3.000000e-04	0.000000e+00	3.000000e-04
3.000000e-04	0.000000e+00	4.000000e-04
3.000000e-04	0.000000e+00	5.000000e-04
3.000000e-04	0.000000e+00	6.000000e-04
3.000000e-04	0.000000e+00	7.000000e-04
3.000000e-04	0.000000e+00	8.000000e-04
3.000000e-04	0.000000e+00	9.000000e-04
4.000000e-04	0.000000e+00	0.000000e+00
4.000000e-04	0.000000e+00	1.000000e-04
4.000000e-04	0.000000e+00	2.000000e-04
4.000000e-04	0.000000e+00	3.000000e-04
4.000000e-04	0.000000e+00	4.000000e-04
4.000000e-04	0.000000e+00	5.000000e-04
4.000000e-04	0.000000e+00	6.000000e-04
4.000000e-04	0.000000e+00	7.000000e-04
4.000000e-04	0.000000e+00	8.000000e-04
4.000000e-04	0.000000e+00	9.000000e-04
5.000000e-04	0.000000e+00	0.000000e+00
5.000000e-04	0.000000e+00	1.000000e-04
5.000000e-04	0.000000e+00	2.000000e-04
5.000000e-04	0.000000e+00	3.000000e-04
5.000000e-04	0.000000e+00	4.000000e-04
5.000000e-04	0.000000e+00	5.000000e-04
5.000000e-04	0.000000e+00	6.000000e-04
5.000000e-04	0.000000e+00	7.000000e-04
5.000000e-04	0.000000e+00	8.000000e-04
5.000000e-04	0.000000e+00	9.000000e-04
6.000000e-04	0.000000e+00	0.000000e+00
6.000000e-04	0.000000e+00	1.000000e-04
6.000000e-04	0.000000e+00	2.000000e-04
6.000000e-04	0.000000e+00	3.000000e-04
6.000000e-04	0.000000e+00	4.000000e-04
6.000000e-04	0.000000e+00	5.000000e-04
6.000000e-04	0.000000e+00	6.000000e-04
6.000000e-04	0.000000e+00	7.000000e-04
6.000000e-04	0.000000e+00	8.000000e-04
6.000000e-04	0.000000e+00	9.000000e-04
7.000000e-04	0.000000e+00	0.000000e+00
7.000000e-04	0.000000e+00	1.000000e-04
7.000000e-04	0.000000e+00	2.000000e-04
7.000000e-04	0.000000e+00	3.000000e-04
7.000000e-04	0.000000e+00	4.000000e-04
7.000000e-04	0.000000e+00	5.000000e-04
7.000000e-04	0.000000e+00	6.000000e-04
7.000000e-04	0.000000e+00	7.000000e-04
7.000000e-04	0.000000e+00	8.000000e-04
7.000000e-04	0.000000e+00	9.000000e-04
8.000000e-04	0.000000e+00	0.000000e+00
8.000000e-04	0.000000e+00	1.000000e-04
8.000000e-04	0.000000e+00	2.000000e-04
8.000000e-04	0.000000e+00	3.000000e-04
8.000000e-04	0.000000e+00	4.000000e-04
8.000000e-04	0.000000e+00	5.000000e-04
8.000000e-04	0.000000e+00	6.000000e-04
8.000000e-04	0.000000e+00	7.000000e-04
8.000000e-04	0.000000e+00	8.000000e-04
8.000000e-04	0.000000e+00	9.000000e-04
9.000000e-04	0.000000e+00	0.000000e+00
9.000000e-04	0.000000e+00	1.000000e-04
9.000000e-04	0.000000e+00	2.000000e-04
9.000000e-04	0.000000e+00	3.000000e-04
9.000000e-04	0.000000e+00	4.000000e-04
9.000000e-04	0.000000e+00	5.000000e-04
9.000000e-04	0.000000e+00	6.000000e-04
9.000000e-04	0.000000e+00	7.000000e-04
9.000000e-04	0.000000e+00	8.000000e-04
9.000000e-04	0.000000e+00	9.000000e-04
LINES	186	558
2	0	10
2	1	11
2	2	12
2	3	13
2	4	14
2	5	15
2	6	16
2	7	17
2	8	18
2	9	19
2	10	11
2	11	12
2	12	13
2	12	22
2	13	14
2	13	23
2	14	15
2	14	23
2	14	25
2	15	25
2	16	17
2	16	26
2	17	26
2	17	27
2	17	28
2	18	19
2	18	27
2	18	28
2	20	21
2	21	22
2	21	31
2	21	32
2	22	23
2	22	31
2	22	32
2	23	24
2	23	32
2	23	33
2	24	25
2	24	35
2	25	26
2	26	27
2	26	35
2	26	36
2	26	37
2	27	28
2	27	36
2	27	38
2	28	29
2	28	37
2	30	31
2	31	32
2	31	41
2	31	42
2	32	33
2	32	41
2	32	43
2	33	34
2	33	43
2	34	35
2	34	43
2	35	36
2	35	44
2	35	45
2	35	46
2	36	37
2	36	46
2	37	38
2	37	46
2	38	39
2	38	47
2	38	48
2	40	41
2	41	42
2	41	51
2	41	52
2	42	43
2	42	53
2	43	44
2	43	52
2	43	53
2	43	54
2	44	45
2	44	54
2	45	46
2	45	54
2	45	55
2	45	56
2	46	47
2	46	56
2	46	57
2	47	48
2	47	56
2	47	58
2	48	49
2	48	57
2	48	58
2	50	51
2	51	52
2	51	61
2	51	62
2	52	53
2	52	61
2	52	63
2	53	54
2	53	62
2	53	64
2	54	55
2	54	64
2	55	56
2	55	65
2	56	57
2	56	66
2	56	67
2	57	58
2	57	67
2	57	68
2	58	59
2	58	67
2	58	68
2	60	61
2	61	62
2	61	71
2	61	72
2	62	63
2	62	71
2	62	73
2	63	64
2	63	72
2	63	73
2	63	74
2	64	65
2	64	73
2	64	74
2	64	75
2	65	66
2	65	75
2	65	76
2	66	67
2	66	77
2	67	68
2	67	78
2	68	69
2	68	77
2	68	78
2	70	71
2	71	72
2	71	81
2	72	73
2	72	81
2	72	82
2	73	74
2	73	84
2	74	75
2	74	83
2	74	84
2	75	76
2	75	84
2	75	85
2	76	77
2	76	86
2	76	87
2	77	78
2	77	86
2	77	87
2	77	88
2	78	79
2	80	90
2	80	81
2	81	91
2	81	82
2	82	92
2	82	83
2	83	93
2	83	84
2	84	94
2	84	85
2	85	95
2	85	86
2	86	96
2	86	87
2	87	97
2	87	88
2	88	98
2	88	89
2	89	99
POINT_DATA 100
SCALARS size_pb float
LOOKUP_TABLE default
1.000000e+00
1.000000e+00
1.000000e+00
1.000000e+00
1.000000e+00
1.000000e+00
1.000000e+00
1.000000e+00
1.000000e+00
1.000000e+00
1.000000e+00
1.000000e+00
1.000000e+00
1.000000e+00
1.000000e+00
1.000000e+00
1.000000e+00
1.000000e+00
1.000000e+00
1.000000e+00
1.000000e+00
1.000000e+00
1.000000e+00
1.000000e+00
1.000000e+00
1.000000e+00
1.000000e+00
1.000000e+00
1.000000e+00
1.000000e+00
1.000000e+00
1.000000e+00
1.000000e+00
1.000000e+00
1.000000e+00
1.000000e+00
1.000000e+00
1.000000e+00
1.000000e+00
1.000000e+00
1.000000e+00
1.000000e+00
1.000000e+00
1.000000e+00
1.000000e+00
1.000000e+00
1.000000e+00
1.000000e+00
1.000000e+00
1.000000e+00
1.000000e+00
1.000000e+00
1.000000e+00
1.000000e+00
1.000000e+00
1.000000e+00
1.000000e+00
1.000000e+00
1.000000e+00
1.000000e+00
1.000000e+00
1.000000e+00
1.000000e+00
1.000000e+00
1.000000e+00
1.000000e+00
1.000000e+00
1.000000e+00
1.000000e+00
1.000000e+00
1.000000e+00
1.000000e+00
1.000000e+00
1.000000e+00
1.000000e+00
1.000000e+00
1.000000e+00
1.000000e+00
1.000000e+00
1.000000e+00
1.000000e+00
1.000000e+00
1.000000e+00
1.000000e+00
1.000000e+00
1.000000e+00
1.000000e+00
1.000000e+00
1.000000e+00
1.000000e+00
1.000000e+00
1.000000e+00
1.000000e+00
1.000000e+00
1.000000e+00
1.000000e+00
1.000000e+00
1.000000e+00
1.000000e+00
1.000000e+00
