# vtk DataFile Version 3.0
pore-scale field varables
ASCII
DATASET POLYDATA 
POINTS 	216	FLOAT
0.000000e+00	0.000000e+00	0.000000e+00
0.000000e+00	0.000000e+00	1.000000e+00
0.000000e+00	0.000000e+00	2.000000e+00
0.000000e+00	0.000000e+00	3.000000e+00
0.000000e+00	0.000000e+00	4.000000e+00
0.000000e+00	0.000000e+00	5.000000e+00
0.000000e+00	1.000000e+00	0.000000e+00
0.000000e+00	1.000000e+00	1.000000e+00
0.000000e+00	1.000000e+00	2.000000e+00
0.000000e+00	1.000000e+00	3.000000e+00
0.000000e+00	1.000000e+00	4.000000e+00
0.000000e+00	1.000000e+00	5.000000e+00
0.000000e+00	2.000000e+00	0.000000e+00
0.000000e+00	2.000000e+00	1.000000e+00
0.000000e+00	2.000000e+00	2.000000e+00
0.000000e+00	2.000000e+00	3.000000e+00
0.000000e+00	2.000000e+00	4.000000e+00
0.000000e+00	2.000000e+00	5.000000e+00
0.000000e+00	3.000000e+00	0.000000e+00
0.000000e+00	3.000000e+00	1.000000e+00
0.000000e+00	3.000000e+00	2.000000e+00
0.000000e+00	3.000000e+00	3.000000e+00
0.000000e+00	3.000000e+00	4.000000e+00
0.000000e+00	3.000000e+00	5.000000e+00
0.000000e+00	4.000000e+00	0.000000e+00
0.000000e+00	4.000000e+00	1.000000e+00
0.000000e+00	4.000000e+00	2.000000e+00
0.000000e+00	4.000000e+00	3.000000e+00
0.000000e+00	4.000000e+00	4.000000e+00
0.000000e+00	4.000000e+00	5.000000e+00
0.000000e+00	5.000000e+00	0.000000e+00
0.000000e+00	5.000000e+00	1.000000e+00
0.000000e+00	5.000000e+00	2.000000e+00
0.000000e+00	5.000000e+00	3.000000e+00
0.000000e+00	5.000000e+00	4.000000e+00
0.000000e+00	5.000000e+00	5.000000e+00
1.000000e+00	0.000000e+00	0.000000e+00
1.000000e+00	0.000000e+00	1.000000e+00
1.000000e+00	0.000000e+00	2.000000e+00
1.000000e+00	0.000000e+00	3.000000e+00
1.000000e+00	0.000000e+00	4.000000e+00
1.000000e+00	0.000000e+00	5.000000e+00
1.000000e+00	1.000000e+00	0.000000e+00
1.000000e+00	1.000000e+00	1.000000e+00
1.000000e+00	1.000000e+00	2.000000e+00
1.000000e+00	1.000000e+00	3.000000e+00
1.000000e+00	1.000000e+00	4.000000e+00
1.000000e+00	1.000000e+00	5.000000e+00
1.000000e+00	2.000000e+00	0.000000e+00
1.000000e+00	2.000000e+00	1.000000e+00
1.000000e+00	2.000000e+00	2.000000e+00
1.000000e+00	2.000000e+00	3.000000e+00
1.000000e+00	2.000000e+00	4.000000e+00
1.000000e+00	2.000000e+00	5.000000e+00
1.000000e+00	3.000000e+00	0.000000e+00
1.000000e+00	3.000000e+00	1.000000e+00
1.000000e+00	3.000000e+00	2.000000e+00
1.000000e+00	3.000000e+00	3.000000e+00
1.000000e+00	3.000000e+00	4.000000e+00
1.000000e+00	3.000000e+00	5.000000e+00
1.000000e+00	4.000000e+00	0.000000e+00
1.000000e+00	4.000000e+00	1.000000e+00
1.000000e+00	4.000000e+00	2.000000e+00
1.000000e+00	4.000000e+00	3.000000e+00
1.000000e+00	4.000000e+00	4.000000e+00
1.000000e+00	4.000000e+00	5.000000e+00
1.000000e+00	5.000000e+00	0.000000e+00
1.000000e+00	5.000000e+00	1.000000e+00
1.000000e+00	5.000000e+00	2.000000e+00
1.000000e+00	5.000000e+00	3.000000e+00
1.000000e+00	5.000000e+00	4.000000e+00
1.000000e+00	5.000000e+00	5.000000e+00
2.000000e+00	0.000000e+00	0.000000e+00
2.000000e+00	0.000000e+00	1.000000e+00
2.000000e+00	0.000000e+00	2.000000e+00
2.000000e+00	0.000000e+00	3.000000e+00
2.000000e+00	0.000000e+00	4.000000e+00
2.000000e+00	0.000000e+00	5.000000e+00
2.000000e+00	1.000000e+00	0.000000e+00
2.000000e+00	1.000000e+00	1.000000e+00
2.000000e+00	1.000000e+00	2.000000e+00
2.000000e+00	1.000000e+00	3.000000e+00
2.000000e+00	1.000000e+00	4.000000e+00
2.000000e+00	1.000000e+00	5.000000e+00
2.000000e+00	2.000000e+00	0.000000e+00
2.000000e+00	2.000000e+00	1.000000e+00
2.000000e+00	2.000000e+00	2.000000e+00
2.000000e+00	2.000000e+00	3.000000e+00
2.000000e+00	2.000000e+00	4.000000e+00
2.000000e+00	2.000000e+00	5.000000e+00
2.000000e+00	3.000000e+00	0.000000e+00
2.000000e+00	3.000000e+00	1.000000e+00
2.000000e+00	3.000000e+00	2.000000e+00
2.000000e+00	3.000000e+00	3.000000e+00
2.000000e+00	3.000000e+00	4.000000e+00
2.000000e+00	3.000000e+00	5.000000e+00
2.000000e+00	4.000000e+00	0.000000e+00
2.000000e+00	4.000000e+00	1.000000e+00
2.000000e+00	4.000000e+00	2.000000e+00
2.000000e+00	4.000000e+00	3.000000e+00
2.000000e+00	4.000000e+00	4.000000e+00
2.000000e+00	4.000000e+00	5.000000e+00
2.000000e+00	5.000000e+00	0.000000e+00
2.000000e+00	5.000000e+00	1.000000e+00
2.000000e+00	5.000000e+00	2.000000e+00
2.000000e+00	5.000000e+00	3.000000e+00
2.000000e+00	5.000000e+00	4.000000e+00
2.000000e+00	5.000000e+00	5.000000e+00
3.000000e+00	0.000000e+00	0.000000e+00
3.000000e+00	0.000000e+00	1.000000e+00
3.000000e+00	0.000000e+00	2.000000e+00
3.000000e+00	0.000000e+00	3.000000e+00
3.000000e+00	0.000000e+00	4.000000e+00
3.000000e+00	0.000000e+00	5.000000e+00
3.000000e+00	1.000000e+00	0.000000e+00
3.000000e+00	1.000000e+00	1.000000e+00
3.000000e+00	1.000000e+00	2.000000e+00
3.000000e+00	1.000000e+00	3.000000e+00
3.000000e+00	1.000000e+00	4.000000e+00
3.000000e+00	1.000000e+00	5.000000e+00
3.000000e+00	2.000000e+00	0.000000e+00
3.000000e+00	2.000000e+00	1.000000e+00
3.000000e+00	2.000000e+00	2.000000e+00
3.000000e+00	2.000000e+00	3.000000e+00
3.000000e+00	2.000000e+00	4.000000e+00
3.000000e+00	2.000000e+00	5.000000e+00
3.000000e+00	3.000000e+00	0.000000e+00
3.000000e+00	3.000000e+00	1.000000e+00
3.000000e+00	3.000000e+00	2.000000e+00
3.000000e+00	3.000000e+00	3.000000e+00
3.000000e+00	3.000000e+00	4.000000e+00
3.000000e+00	3.000000e+00	5.000000e+00
3.000000e+00	4.000000e+00	0.000000e+00
3.000000e+00	4.000000e+00	1.000000e+00
3.000000e+00	4.000000e+00	2.000000e+00
3.000000e+00	4.000000e+00	3.000000e+00
3.000000e+00	4.000000e+00	4.000000e+00
3.000000e+00	4.000000e+00	5.000000e+00
3.000000e+00	5.000000e+00	0.000000e+00
3.000000e+00	5.000000e+00	1.000000e+00
3.000000e+00	5.000000e+00	2.000000e+00
3.000000e+00	5.000000e+00	3.000000e+00
3.000000e+00	5.000000e+00	4.000000e+00
3.000000e+00	5.000000e+00	5.000000e+00
4.000000e+00	0.000000e+00	0.000000e+00
4.000000e+00	0.000000e+00	1.000000e+00
4.000000e+00	0.000000e+00	2.000000e+00
4.000000e+00	0.000000e+00	3.000000e+00
4.000000e+00	0.000000e+00	4.000000e+00
4.000000e+00	0.000000e+00	5.000000e+00
4.000000e+00	1.000000e+00	0.000000e+00
4.000000e+00	1.000000e+00	1.000000e+00
4.000000e+00	1.000000e+00	2.000000e+00
4.000000e+00	1.000000e+00	3.000000e+00
4.000000e+00	1.000000e+00	4.000000e+00
4.000000e+00	1.000000e+00	5.000000e+00
4.000000e+00	2.000000e+00	0.000000e+00
4.000000e+00	2.000000e+00	1.000000e+00
4.000000e+00	2.000000e+00	2.000000e+00
4.000000e+00	2.000000e+00	3.000000e+00
4.000000e+00	2.000000e+00	4.000000e+00
4.000000e+00	2.000000e+00	5.000000e+00
4.000000e+00	3.000000e+00	0.000000e+00
4.000000e+00	3.000000e+00	1.000000e+00
4.000000e+00	3.000000e+00	2.000000e+00
4.000000e+00	3.000000e+00	3.000000e+00
4.000000e+00	3.000000e+00	4.000000e+00
4.000000e+00	3.000000e+00	5.000000e+00
4.000000e+00	4.000000e+00	0.000000e+00
4.000000e+00	4.000000e+00	1.000000e+00
4.000000e+00	4.000000e+00	2.000000e+00
4.000000e+00	4.000000e+00	3.000000e+00
4.000000e+00	4.000000e+00	4.000000e+00
4.000000e+00	4.000000e+00	5.000000e+00
4.000000e+00	5.000000e+00	0.000000e+00
4.000000e+00	5.000000e+00	1.000000e+00
4.000000e+00	5.000000e+00	2.000000e+00
4.000000e+00	5.000000e+00	3.000000e+00
4.000000e+00	5.000000e+00	4.000000e+00
4.000000e+00	5.000000e+00	5.000000e+00
5.000000e+00	0.000000e+00	0.000000e+00
5.000000e+00	0.000000e+00	1.000000e+00
5.000000e+00	0.000000e+00	2.000000e+00
5.000000e+00	0.000000e+00	3.000000e+00
5.000000e+00	0.000000e+00	4.000000e+00
5.000000e+00	0.000000e+00	5.000000e+00
5.000000e+00	1.000000e+00	0.000000e+00
5.000000e+00	1.000000e+00	1.000000e+00
5.000000e+00	1.000000e+00	2.000000e+00
5.000000e+00	1.000000e+00	3.000000e+00
5.000000e+00	1.000000e+00	4.000000e+00
5.000000e+00	1.000000e+00	5.000000e+00
5.000000e+00	2.000000e+00	0.000000e+00
5.000000e+00	2.000000e+00	1.000000e+00
5.000000e+00	2.000000e+00	2.000000e+00
5.000000e+00	2.000000e+00	3.000000e+00
5.000000e+00	2.000000e+00	4.000000e+00
5.000000e+00	2.000000e+00	5.000000e+00
5.000000e+00	3.000000e+00	0.000000e+00
5.000000e+00	3.000000e+00	1.000000e+00
5.000000e+00	3.000000e+00	2.000000e+00
5.000000e+00	3.000000e+00	3.000000e+00
5.000000e+00	3.000000e+00	4.000000e+00
5.000000e+00	3.000000e+00	5.000000e+00
5.000000e+00	4.000000e+00	0.000000e+00
5.000000e+00	4.000000e+00	1.000000e+00
5.000000e+00	4.000000e+00	2.000000e+00
5.000000e+00	4.000000e+00	3.000000e+00
5.000000e+00	4.000000e+00	4.000000e+00
5.000000e+00	4.000000e+00	5.000000e+00
5.000000e+00	5.000000e+00	0.000000e+00
5.000000e+00	5.000000e+00	1.000000e+00
5.000000e+00	5.000000e+00	2.000000e+00
5.000000e+00	5.000000e+00	3.000000e+00
5.000000e+00	5.000000e+00	4.000000e+00
5.000000e+00	5.000000e+00	5.000000e+00
LINES	508	1524
2	0	36
2	1	37
2	2	38
2	3	39
2	4	40
2	5	41
2	6	42
2	7	43
2	8	44
2	9	45
2	10	46
2	11	47
2	12	48
2	13	49
2	14	50
2	15	51
2	16	52
2	17	53
2	18	54
2	19	55
2	20	56
2	21	57
2	22	58
2	23	59
2	24	60
2	25	61
2	26	62
2	27	63
2	28	64
2	29	65
2	30	66
2	31	67
2	32	68
2	33	69
2	34	70
2	35	71
2	36	43
2	37	38
2	37	72
2	38	43
2	38	45
2	38	80
2	39	75
2	39	76
2	40	46
2	40	47
2	40	75
2	40	76
2	40	77
2	40	82
2	41	46
2	41	47
2	41	76
2	41	77
2	42	49
2	42	84
2	43	48
2	43	50
2	43	73
2	43	78
2	43	80
2	44	49
2	44	50
2	44	51
2	44	80
2	44	81
2	44	86
2	45	50
2	45	51
2	45	75
2	45	87
2	46	51
2	46	83
2	46	88
2	47	53
2	47	82
2	48	78
2	48	84
2	48	90
2	49	54
2	49	56
2	49	79
2	49	86
2	50	56
2	50	85
2	50	92
2	51	52
2	51	56
2	51	57
2	51	58
2	51	87
2	51	93
2	52	53
2	52	57
2	52	58
2	52	88
2	52	89
2	53	58
2	53	59
2	53	95
2	54	55
2	54	60
2	54	61
2	54	84
2	54	91
2	55	60
2	55	61
2	55	85
2	55	90
2	55	92
2	55	97
2	56	63
2	56	86
2	56	91
2	56	92
2	56	98
2	57	63
2	57	64
2	57	93
2	57	99
2	58	64
2	58	65
2	58	88
2	58	93
2	59	64
2	59	65
2	59	101
2	60	61
2	60	66
2	60	67
2	60	90
2	61	67
2	61	68
2	61	91
2	61	96
2	62	68
2	62	69
2	62	99
2	63	64
2	63	70
2	63	93
2	63	98
2	63	99
2	63	100
2	63	105
2	64	65
2	64	71
2	64	94
2	64	101
2	65	70
2	65	71
2	65	95
2	65	100
2	65	101
2	66	96
2	66	102
2	66	103
2	67	102
2	67	103
2	68	69
2	68	98
2	68	103
2	68	104
2	70	105
2	70	106
2	71	106
2	72	73
2	72	78
2	72	79
2	72	109
2	73	79
2	73	80
2	74	80
2	74	116
2	75	110
2	75	112
2	76	77
2	76	111
2	76	113
2	76	118
2	77	82
2	77	113
2	78	85
2	78	115
2	78	120
2	79	114
2	79	116
2	79	121
2	80	110
2	80	116
2	81	86
2	81	111
2	81	117
2	82	83
2	82	87
2	82	89
2	82	117
2	82	124
2	83	88
2	83	89
2	83	113
2	83	119
2	83	125
2	84	91
2	84	114
2	84	120
2	84	121
2	85	90
2	85	92
2	85	122
2	86	87
2	86	92
2	87	88
2	87	92
2	87	94
2	87	129
2	88	118
2	88	125
2	88	130
2	89	94
2	89	119
2	89	124
2	89	131
2	90	91
2	90	126
2	91	92
2	92	97
2	92	98
2	92	122
2	92	127
2	92	129
2	92	134
2	93	99
2	93	100
2	93	123
2	93	128
2	93	130
2	94	95
2	94	129
2	94	136
2	95	100
2	95	101
2	95	125
2	95	137
2	96	97
2	96	102
2	96	103
2	96	132
2	96	133
2	96	138
2	97	98
2	97	102
2	97	103
2	97	104
2	97	127
2	97	133
2	98	104
2	98	105
2	98	133
2	98	134
2	99	100
2	99	104
2	99	135
2	99	141
2	100	107
2	100	130
2	100	135
2	100	136
2	100	142
2	101	107
2	101	143
2	102	132
2	102	139
2	103	133
2	103	138
2	103	140
2	104	105
2	104	134
2	104	139
2	104	140
2	105	140
2	105	141
2	106	107
2	106	136
2	106	141
2	106	142
2	106	143
2	107	137
2	108	115
2	108	145
2	109	116
2	109	144
2	109	145
2	109	146
2	110	145
2	110	146
2	110	152
2	111	112
2	111	116
2	111	117
2	111	118
2	111	153
2	112	113
2	112	117
2	112	118
2	112	119
2	112	147
2	112	149
2	112	154
2	113	118
2	113	149
2	114	120
2	114	144
2	114	150
2	114	151
2	115	120
2	115	150
2	115	151
2	115	157
2	116	117
2	116	122
2	116	152
2	117	123
2	117	147
2	117	152
2	117	159
2	118	124
2	118	148
2	118	153
2	118	154
2	118	155
2	118	160
2	119	125
2	119	149
2	119	154
2	119	161
2	120	127
2	120	162
2	121	127
2	121	158
2	122	127
2	122	157
2	122	158
2	122	159
2	122	164
2	123	124
2	123	153
2	123	158
2	123	165
2	125	131
2	126	132
2	126	133
2	126	156
2	126	162
2	126	163
2	127	132
2	127	133
2	127	134
2	127	163
2	128	129
2	128	134
2	128	158
2	128	170
2	129	130
2	129	134
2	129	136
2	129	159
2	129	165
2	129	166
2	129	171
2	130	131
2	130	136
2	130	137
2	130	172
2	131	136
2	131	161
2	131	167
2	131	173
2	132	133
2	132	138
2	132	162
2	132	174
2	133	140
2	133	169
2	133	170
2	133	175
2	134	140
2	134	141
2	134	164
2	134	171
2	135	142
2	135	165
2	135	171
2	135	177
2	136	166
2	136	178
2	137	142
2	137	143
2	137	167
2	137	173
2	138	168
2	139	140
2	139	175
2	139	176
2	140	141
2	140	175
2	140	177
2	141	171
2	141	176
2	141	177
2	142	143
2	142	177
2	142	179
2	143	173
2	143	179
2	144	180
2	144	145
2	144	150
2	144	151
2	145	181
2	145	150
2	146	182
2	146	147
2	146	152
2	147	183
2	147	148
2	147	152
2	147	154
2	148	184
2	148	153
2	149	185
2	149	154
2	150	186
2	150	156
2	151	187
2	151	152
2	151	157
2	151	158
2	152	188
2	152	153
2	152	157
2	153	189
2	154	190
2	154	159
2	155	191
2	155	160
2	156	192
2	156	163
2	157	193
2	157	162
2	158	194
2	158	163
2	158	164
2	158	165
2	159	195
2	159	160
2	159	165
2	160	196
2	160	165
2	161	197
2	161	166
2	162	198
2	162	168
2	162	169
2	163	199
2	163	168
2	163	169
2	163	170
2	164	200
2	164	165
2	164	169
2	164	170
2	165	201
2	165	170
2	166	202
2	166	167
2	166	171
2	166	173
2	167	203
2	167	172
2	167	173
2	168	204
2	168	169
2	168	174
2	168	175
2	169	205
2	169	175
2	169	176
2	170	206
2	170	171
2	170	175
2	170	176
2	170	177
2	171	207
2	171	176
2	171	177
2	172	208
2	172	173
2	172	179
2	173	209
2	174	210
2	175	211
2	175	176
2	176	212
2	176	177
2	177	213
2	178	214
2	179	215
POINT_DATA 216
SCALARS size_pb float
LOOKUP_TABLE default
1.000000e+00
1.000000e+00
1.000000e+00
1.000000e+00
1.000000e+00
1.000000e+00
1.000000e+00
1.000000e+00
1.000000e+00
1.000000e+00
1.000000e+00
1.000000e+00
1.000000e+00
1.000000e+00
1.000000e+00
1.000000e+00
1.000000e+00
1.000000e+00
1.000000e+00
1.000000e+00
1.000000e+00
1.000000e+00
1.000000e+00
1.000000e+00
1.000000e+00
1.000000e+00
1.000000e+00
1.000000e+00
1.000000e+00
1.000000e+00
1.000000e+00
1.000000e+00
1.000000e+00
1.000000e+00
1.000000e+00
1.000000e+00
1.000000e+00
1.000000e+00
1.000000e+00
1.000000e+00
1.000000e+00
1.000000e+00
1.000000e+00
1.000000e+00
1.000000e+00
1.000000e+00
1.000000e+00
1.000000e+00
1.000000e+00
1.000000e+00
1.000000e+00
1.000000e+00
1.000000e+00
1.000000e+00
1.000000e+00
1.000000e+00
1.000000e+00
1.000000e+00
1.000000e+00
1.000000e+00
1.000000e+00
1.000000e+00
1.000000e+00
1.000000e+00
1.000000e+00
1.000000e+00
1.000000e+00
1.000000e+00
1.000000e+00
1.000000e+00
1.000000e+00
1.000000e+00
1.000000e+00
1.000000e+00
1.000000e+00
1.000000e+00
1.000000e+00
1.000000e+00
1.000000e+00
1.000000e+00
1.000000e+00
1.000000e+00
1.000000e+00
1.000000e+00
1.000000e+00
1.000000e+00
1.000000e+00
1.000000e+00
1.000000e+00
1.000000e+00
1.000000e+00
1.000000e+00
1.000000e+00
1.000000e+00
1.000000e+00
1.000000e+00
1.000000e+00
1.000000e+00
1.000000e+00
1.000000e+00
1.000000e+00
1.000000e+00
1.000000e+00
1.000000e+00
1.000000e+00
1.000000e+00
1.000000e+00
1.000000e+00
1.000000e+00
1.000000e+00
1.000000e+00
1.000000e+00
1.000000e+00
1.000000e+00
1.000000e+00
1.000000e+00
1.000000e+00
1.000000e+00
1.000000e+00
1.000000e+00
1.000000e+00
1.000000e+00
1.000000e+00
1.000000e+00
1.000000e+00
1.000000e+00
1.000000e+00
1.000000e+00
1.000000e+00
1.000000e+00
1.000000e+00
1.000000e+00
1.000000e+00
1.000000e+00
1.000000e+00
1.000000e+00
1.000000e+00
1.000000e+00
1.000000e+00
1.000000e+00
1.000000e+00
1.000000e+00
1.000000e+00
1.000000e+00
1.000000e+00
1.000000e+00
1.000000e+00
1.000000e+00
1.000000e+00
1.000000e+00
1.000000e+00
1.000000e+00
1.000000e+00
1.000000e+00
1.000000e+00
1.000000e+00
1.000000e+00
1.000000e+00
1.000000e+00
1.000000e+00
1.000000e+00
1.000000e+00
1.000000e+00
1.000000e+00
1.000000e+00
1.000000e+00
1.000000e+00
1.000000e+00
1.000000e+00
1.000000e+00
1.000000e+00
1.000000e+00
1.000000e+00
1.000000e+00
1.000000e+00
1.000000e+00
1.000000e+00
1.000000e+00
1.000000e+00
1.000000e+00
1.000000e+00
1.000000e+00
1.000000e+00
1.000000e+00
1.000000e+00
1.000000e+00
1.000000e+00
1.000000e+00
1.000000e+00
1.000000e+00
1.000000e+00
1.000000e+00
1.000000e+00
1.000000e+00
1.000000e+00
1.000000e+00
1.000000e+00
1.000000e+00
1.000000e+00
1.000000e+00
1.000000e+00
1.000000e+00
1.000000e+00
1.000000e+00
1.000000e+00
1.000000e+00
1.000000e+00
1.000000e+00
1.000000e+00
1.000000e+00
1.000000e+00
1.000000e+00
1.000000e+00
1.000000e+00
1.000000e+00
1.000000e+00
