# vtk DataFile Version 3.0
pore-scale field varables
ASCII
DATASET POLYDATA 
POINTS 	0	FLOAT
LINES	0	0
POINT_DATA 0
SCALARS size_pb float
LOOKUP_TABLE default
