# vtk DataFile Version 3.0
pore-scale field varables
ASCII
DATASET POLYDATA 
POINTS 	216	FLOAT
0.000000e+00	0.000000e+00	0.000000e+00
0.000000e+00	0.000000e+00	1.000000e+00
0.000000e+00	0.000000e+00	2.000000e+00
0.000000e+00	0.000000e+00	3.000000e+00
0.000000e+00	0.000000e+00	4.000000e+00
0.000000e+00	0.000000e+00	5.000000e+00
0.000000e+00	1.000000e+00	0.000000e+00
0.000000e+00	1.000000e+00	1.000000e+00
0.000000e+00	1.000000e+00	2.000000e+00
0.000000e+00	1.000000e+00	3.000000e+00
0.000000e+00	1.000000e+00	4.000000e+00
0.000000e+00	1.000000e+00	5.000000e+00
0.000000e+00	2.000000e+00	0.000000e+00
0.000000e+00	2.000000e+00	1.000000e+00
0.000000e+00	2.000000e+00	2.000000e+00
0.000000e+00	2.000000e+00	3.000000e+00
0.000000e+00	2.000000e+00	4.000000e+00
0.000000e+00	2.000000e+00	5.000000e+00
0.000000e+00	3.000000e+00	0.000000e+00
0.000000e+00	3.000000e+00	1.000000e+00
0.000000e+00	3.000000e+00	2.000000e+00
0.000000e+00	3.000000e+00	3.000000e+00
0.000000e+00	3.000000e+00	4.000000e+00
0.000000e+00	3.000000e+00	5.000000e+00
0.000000e+00	4.000000e+00	0.000000e+00
0.000000e+00	4.000000e+00	1.000000e+00
0.000000e+00	4.000000e+00	2.000000e+00
0.000000e+00	4.000000e+00	3.000000e+00
0.000000e+00	4.000000e+00	4.000000e+00
0.000000e+00	4.000000e+00	5.000000e+00
0.000000e+00	5.000000e+00	0.000000e+00
0.000000e+00	5.000000e+00	1.000000e+00
0.000000e+00	5.000000e+00	2.000000e+00
0.000000e+00	5.000000e+00	3.000000e+00
0.000000e+00	5.000000e+00	4.000000e+00
0.000000e+00	5.000000e+00	5.000000e+00
1.000000e+00	0.000000e+00	0.000000e+00
1.000000e+00	0.000000e+00	1.000000e+00
1.000000e+00	0.000000e+00	2.000000e+00
1.000000e+00	0.000000e+00	3.000000e+00
1.000000e+00	0.000000e+00	4.000000e+00
1.000000e+00	0.000000e+00	5.000000e+00
1.000000e+00	1.000000e+00	0.000000e+00
1.000000e+00	1.000000e+00	1.000000e+00
1.000000e+00	1.000000e+00	2.000000e+00
1.000000e+00	1.000000e+00	3.000000e+00
1.000000e+00	1.000000e+00	4.000000e+00
1.000000e+00	1.000000e+00	5.000000e+00
1.000000e+00	2.000000e+00	0.000000e+00
1.000000e+00	2.000000e+00	1.000000e+00
1.000000e+00	2.000000e+00	2.000000e+00
1.000000e+00	2.000000e+00	3.000000e+00
1.000000e+00	2.000000e+00	4.000000e+00
1.000000e+00	2.000000e+00	5.000000e+00
1.000000e+00	3.000000e+00	0.000000e+00
1.000000e+00	3.000000e+00	1.000000e+00
1.000000e+00	3.000000e+00	2.000000e+00
1.000000e+00	3.000000e+00	3.000000e+00
1.000000e+00	3.000000e+00	4.000000e+00
1.000000e+00	3.000000e+00	5.000000e+00
1.000000e+00	4.000000e+00	0.000000e+00
1.000000e+00	4.000000e+00	1.000000e+00
1.000000e+00	4.000000e+00	2.000000e+00
1.000000e+00	4.000000e+00	3.000000e+00
1.000000e+00	4.000000e+00	4.000000e+00
1.000000e+00	4.000000e+00	5.000000e+00
1.000000e+00	5.000000e+00	0.000000e+00
1.000000e+00	5.000000e+00	1.000000e+00
1.000000e+00	5.000000e+00	2.000000e+00
1.000000e+00	5.000000e+00	3.000000e+00
1.000000e+00	5.000000e+00	4.000000e+00
1.000000e+00	5.000000e+00	5.000000e+00
2.000000e+00	0.000000e+00	0.000000e+00
2.000000e+00	0.000000e+00	1.000000e+00
2.000000e+00	0.000000e+00	2.000000e+00
2.000000e+00	0.000000e+00	3.000000e+00
2.000000e+00	0.000000e+00	4.000000e+00
2.000000e+00	0.000000e+00	5.000000e+00
2.000000e+00	1.000000e+00	0.000000e+00
2.000000e+00	1.000000e+00	1.000000e+00
2.000000e+00	1.000000e+00	2.000000e+00
2.000000e+00	1.000000e+00	3.000000e+00
2.000000e+00	1.000000e+00	4.000000e+00
2.000000e+00	1.000000e+00	5.000000e+00
2.000000e+00	2.000000e+00	0.000000e+00
2.000000e+00	2.000000e+00	1.000000e+00
2.000000e+00	2.000000e+00	2.000000e+00
2.000000e+00	2.000000e+00	3.000000e+00
2.000000e+00	2.000000e+00	4.000000e+00
2.000000e+00	2.000000e+00	5.000000e+00
2.000000e+00	3.000000e+00	0.000000e+00
2.000000e+00	3.000000e+00	1.000000e+00
2.000000e+00	3.000000e+00	2.000000e+00
2.000000e+00	3.000000e+00	3.000000e+00
2.000000e+00	3.000000e+00	4.000000e+00
2.000000e+00	3.000000e+00	5.000000e+00
2.000000e+00	4.000000e+00	0.000000e+00
2.000000e+00	4.000000e+00	1.000000e+00
2.000000e+00	4.000000e+00	2.000000e+00
2.000000e+00	4.000000e+00	3.000000e+00
2.000000e+00	4.000000e+00	4.000000e+00
2.000000e+00	4.000000e+00	5.000000e+00
2.000000e+00	5.000000e+00	0.000000e+00
2.000000e+00	5.000000e+00	1.000000e+00
2.000000e+00	5.000000e+00	2.000000e+00
2.000000e+00	5.000000e+00	3.000000e+00
2.000000e+00	5.000000e+00	4.000000e+00
2.000000e+00	5.000000e+00	5.000000e+00
3.000000e+00	0.000000e+00	0.000000e+00
3.000000e+00	0.000000e+00	1.000000e+00
3.000000e+00	0.000000e+00	2.000000e+00
3.000000e+00	0.000000e+00	3.000000e+00
3.000000e+00	0.000000e+00	4.000000e+00
3.000000e+00	0.000000e+00	5.000000e+00
3.000000e+00	1.000000e+00	0.000000e+00
3.000000e+00	1.000000e+00	1.000000e+00
3.000000e+00	1.000000e+00	2.000000e+00
3.000000e+00	1.000000e+00	3.000000e+00
3.000000e+00	1.000000e+00	4.000000e+00
3.000000e+00	1.000000e+00	5.000000e+00
3.000000e+00	2.000000e+00	0.000000e+00
3.000000e+00	2.000000e+00	1.000000e+00
3.000000e+00	2.000000e+00	2.000000e+00
3.000000e+00	2.000000e+00	3.000000e+00
3.000000e+00	2.000000e+00	4.000000e+00
3.000000e+00	2.000000e+00	5.000000e+00
3.000000e+00	3.000000e+00	0.000000e+00
3.000000e+00	3.000000e+00	1.000000e+00
3.000000e+00	3.000000e+00	2.000000e+00
3.000000e+00	3.000000e+00	3.000000e+00
3.000000e+00	3.000000e+00	4.000000e+00
3.000000e+00	3.000000e+00	5.000000e+00
3.000000e+00	4.000000e+00	0.000000e+00
3.000000e+00	4.000000e+00	1.000000e+00
3.000000e+00	4.000000e+00	2.000000e+00
3.000000e+00	4.000000e+00	3.000000e+00
3.000000e+00	4.000000e+00	4.000000e+00
3.000000e+00	4.000000e+00	5.000000e+00
3.000000e+00	5.000000e+00	0.000000e+00
3.000000e+00	5.000000e+00	1.000000e+00
3.000000e+00	5.000000e+00	2.000000e+00
3.000000e+00	5.000000e+00	3.000000e+00
3.000000e+00	5.000000e+00	4.000000e+00
3.000000e+00	5.000000e+00	5.000000e+00
4.000000e+00	0.000000e+00	0.000000e+00
4.000000e+00	0.000000e+00	1.000000e+00
4.000000e+00	0.000000e+00	2.000000e+00
4.000000e+00	0.000000e+00	3.000000e+00
4.000000e+00	0.000000e+00	4.000000e+00
4.000000e+00	0.000000e+00	5.000000e+00
4.000000e+00	1.000000e+00	0.000000e+00
4.000000e+00	1.000000e+00	1.000000e+00
4.000000e+00	1.000000e+00	2.000000e+00
4.000000e+00	1.000000e+00	3.000000e+00
4.000000e+00	1.000000e+00	4.000000e+00
4.000000e+00	1.000000e+00	5.000000e+00
4.000000e+00	2.000000e+00	0.000000e+00
4.000000e+00	2.000000e+00	1.000000e+00
4.000000e+00	2.000000e+00	2.000000e+00
4.000000e+00	2.000000e+00	3.000000e+00
4.000000e+00	2.000000e+00	4.000000e+00
4.000000e+00	2.000000e+00	5.000000e+00
4.000000e+00	3.000000e+00	0.000000e+00
4.000000e+00	3.000000e+00	1.000000e+00
4.000000e+00	3.000000e+00	2.000000e+00
4.000000e+00	3.000000e+00	3.000000e+00
4.000000e+00	3.000000e+00	4.000000e+00
4.000000e+00	3.000000e+00	5.000000e+00
4.000000e+00	4.000000e+00	0.000000e+00
4.000000e+00	4.000000e+00	1.000000e+00
4.000000e+00	4.000000e+00	2.000000e+00
4.000000e+00	4.000000e+00	3.000000e+00
4.000000e+00	4.000000e+00	4.000000e+00
4.000000e+00	4.000000e+00	5.000000e+00
4.000000e+00	5.000000e+00	0.000000e+00
4.000000e+00	5.000000e+00	1.000000e+00
4.000000e+00	5.000000e+00	2.000000e+00
4.000000e+00	5.000000e+00	3.000000e+00
4.000000e+00	5.000000e+00	4.000000e+00
4.000000e+00	5.000000e+00	5.000000e+00
5.000000e+00	0.000000e+00	0.000000e+00
5.000000e+00	0.000000e+00	1.000000e+00
5.000000e+00	0.000000e+00	2.000000e+00
5.000000e+00	0.000000e+00	3.000000e+00
5.000000e+00	0.000000e+00	4.000000e+00
5.000000e+00	0.000000e+00	5.000000e+00
5.000000e+00	1.000000e+00	0.000000e+00
5.000000e+00	1.000000e+00	1.000000e+00
5.000000e+00	1.000000e+00	2.000000e+00
5.000000e+00	1.000000e+00	3.000000e+00
5.000000e+00	1.000000e+00	4.000000e+00
5.000000e+00	1.000000e+00	5.000000e+00
5.000000e+00	2.000000e+00	0.000000e+00
5.000000e+00	2.000000e+00	1.000000e+00
5.000000e+00	2.000000e+00	2.000000e+00
5.000000e+00	2.000000e+00	3.000000e+00
5.000000e+00	2.000000e+00	4.000000e+00
5.000000e+00	2.000000e+00	5.000000e+00
5.000000e+00	3.000000e+00	0.000000e+00
5.000000e+00	3.000000e+00	1.000000e+00
5.000000e+00	3.000000e+00	2.000000e+00
5.000000e+00	3.000000e+00	3.000000e+00
5.000000e+00	3.000000e+00	4.000000e+00
5.000000e+00	3.000000e+00	5.000000e+00
5.000000e+00	4.000000e+00	0.000000e+00
5.000000e+00	4.000000e+00	1.000000e+00
5.000000e+00	4.000000e+00	2.000000e+00
5.000000e+00	4.000000e+00	3.000000e+00
5.000000e+00	4.000000e+00	4.000000e+00
5.000000e+00	4.000000e+00	5.000000e+00
5.000000e+00	5.000000e+00	0.000000e+00
5.000000e+00	5.000000e+00	1.000000e+00
5.000000e+00	5.000000e+00	2.000000e+00
5.000000e+00	5.000000e+00	3.000000e+00
5.000000e+00	5.000000e+00	4.000000e+00
5.000000e+00	5.000000e+00	5.000000e+00
LINES	980	2940
2	0	36
2	1	37
2	2	38
2	3	39
2	4	40
2	5	41
2	6	42
2	7	43
2	8	44
2	9	45
2	10	46
2	11	47
2	12	48
2	13	49
2	14	50
2	15	51
2	16	52
2	17	53
2	18	54
2	19	55
2	20	56
2	21	57
2	22	58
2	23	59
2	24	60
2	25	61
2	26	62
2	27	63
2	28	64
2	29	65
2	30	66
2	31	67
2	32	68
2	33	69
2	34	70
2	35	71
2	36	37
2	36	42
2	36	43
2	36	72
2	36	73
2	36	78
2	37	38
2	37	42
2	37	43
2	37	44
2	37	72
2	37	73
2	37	74
2	37	79
2	38	39
2	38	43
2	38	44
2	38	45
2	38	73
2	38	74
2	38	75
2	38	80
2	39	40
2	39	44
2	39	45
2	39	46
2	39	74
2	39	75
2	39	76
2	39	81
2	40	41
2	40	45
2	40	46
2	40	47
2	40	75
2	40	76
2	40	77
2	40	82
2	41	46
2	41	47
2	41	76
2	41	77
2	41	83
2	42	43
2	42	48
2	42	49
2	42	72
2	42	78
2	42	79
2	42	84
2	43	44
2	43	48
2	43	49
2	43	50
2	43	73
2	43	78
2	43	79
2	43	80
2	43	85
2	44	45
2	44	49
2	44	50
2	44	51
2	44	74
2	44	79
2	44	80
2	44	81
2	44	86
2	45	46
2	45	50
2	45	51
2	45	52
2	45	75
2	45	80
2	45	81
2	45	82
2	45	87
2	46	47
2	46	51
2	46	52
2	46	53
2	46	76
2	46	81
2	46	82
2	46	83
2	46	88
2	47	52
2	47	53
2	47	77
2	47	82
2	47	83
2	47	89
2	48	49
2	48	54
2	48	55
2	48	78
2	48	84
2	48	85
2	48	90
2	49	50
2	49	54
2	49	55
2	49	56
2	49	79
2	49	84
2	49	85
2	49	86
2	49	91
2	50	51
2	50	55
2	50	56
2	50	57
2	50	80
2	50	85
2	50	86
2	50	87
2	50	92
2	51	52
2	51	56
2	51	57
2	51	58
2	51	81
2	51	86
2	51	87
2	51	88
2	51	93
2	52	53
2	52	57
2	52	58
2	52	59
2	52	82
2	52	87
2	52	88
2	52	89
2	52	94
2	53	58
2	53	59
2	53	83
2	53	88
2	53	89
2	53	95
2	54	55
2	54	60
2	54	61
2	54	84
2	54	90
2	54	91
2	54	96
2	55	56
2	55	60
2	55	61
2	55	62
2	55	85
2	55	90
2	55	91
2	55	92
2	55	97
2	56	57
2	56	61
2	56	62
2	56	63
2	56	86
2	56	91
2	56	92
2	56	93
2	56	98
2	57	58
2	57	62
2	57	63
2	57	64
2	57	87
2	57	92
2	57	93
2	57	94
2	57	99
2	58	59
2	58	63
2	58	64
2	58	65
2	58	88
2	58	93
2	58	94
2	58	95
2	58	100
2	59	64
2	59	65
2	59	89
2	59	94
2	59	95
2	59	101
2	60	61
2	60	66
2	60	67
2	60	90
2	60	96
2	60	97
2	60	102
2	61	62
2	61	66
2	61	67
2	61	68
2	61	91
2	61	96
2	61	97
2	61	98
2	61	103
2	62	63
2	62	67
2	62	68
2	62	69
2	62	92
2	62	97
2	62	98
2	62	99
2	62	104
2	63	64
2	63	68
2	63	69
2	63	70
2	63	93
2	63	98
2	63	99
2	63	100
2	63	105
2	64	65
2	64	69
2	64	70
2	64	71
2	64	94
2	64	99
2	64	100
2	64	101
2	64	106
2	65	70
2	65	71
2	65	95
2	65	100
2	65	101
2	65	107
2	66	67
2	66	96
2	66	102
2	66	103
2	67	68
2	67	97
2	67	102
2	67	103
2	67	104
2	68	69
2	68	98
2	68	103
2	68	104
2	68	105
2	69	70
2	69	99
2	69	104
2	69	105
2	69	106
2	70	71
2	70	100
2	70	105
2	70	106
2	70	107
2	71	101
2	71	106
2	71	107
2	72	73
2	72	78
2	72	79
2	72	108
2	72	109
2	72	114
2	73	74
2	73	78
2	73	79
2	73	80
2	73	108
2	73	109
2	73	110
2	73	115
2	74	75
2	74	79
2	74	80
2	74	81
2	74	109
2	74	110
2	74	111
2	74	116
2	75	76
2	75	80
2	75	81
2	75	82
2	75	110
2	75	111
2	75	112
2	75	117
2	76	77
2	76	81
2	76	82
2	76	83
2	76	111
2	76	112
2	76	113
2	76	118
2	77	82
2	77	83
2	77	112
2	77	113
2	77	119
2	78	79
2	78	84
2	78	85
2	78	108
2	78	114
2	78	115
2	78	120
2	79	80
2	79	84
2	79	85
2	79	86
2	79	109
2	79	114
2	79	115
2	79	116
2	79	121
2	80	81
2	80	85
2	80	86
2	80	87
2	80	110
2	80	115
2	80	116
2	80	117
2	80	122
2	81	82
2	81	86
2	81	87
2	81	88
2	81	111
2	81	116
2	81	117
2	81	118
2	81	123
2	82	83
2	82	87
2	82	88
2	82	89
2	82	112
2	82	117
2	82	118
2	82	119
2	82	124
2	83	88
2	83	89
2	83	113
2	83	118
2	83	119
2	83	125
2	84	85
2	84	90
2	84	91
2	84	114
2	84	120
2	84	121
2	84	126
2	85	86
2	85	90
2	85	91
2	85	92
2	85	115
2	85	120
2	85	121
2	85	122
2	85	127
2	86	87
2	86	91
2	86	92
2	86	93
2	86	116
2	86	121
2	86	122
2	86	123
2	86	128
2	87	88
2	87	92
2	87	93
2	87	94
2	87	117
2	87	122
2	87	123
2	87	124
2	87	129
2	88	89
2	88	93
2	88	94
2	88	95
2	88	118
2	88	123
2	88	124
2	88	125
2	88	130
2	89	94
2	89	95
2	89	119
2	89	124
2	89	125
2	89	131
2	90	91
2	90	96
2	90	97
2	90	120
2	90	126
2	90	127
2	90	132
2	91	92
2	91	96
2	91	97
2	91	98
2	91	121
2	91	126
2	91	127
2	91	128
2	91	133
2	92	93
2	92	97
2	92	98
2	92	99
2	92	122
2	92	127
2	92	128
2	92	129
2	92	134
2	93	94
2	93	98
2	93	99
2	93	100
2	93	123
2	93	128
2	93	129
2	93	130
2	93	135
2	94	95
2	94	99
2	94	100
2	94	101
2	94	124
2	94	129
2	94	130
2	94	131
2	94	136
2	95	100
2	95	101
2	95	125
2	95	130
2	95	131
2	95	137
2	96	97
2	96	102
2	96	103
2	96	126
2	96	132
2	96	133
2	96	138
2	97	98
2	97	102
2	97	103
2	97	104
2	97	127
2	97	132
2	97	133
2	97	134
2	97	139
2	98	99
2	98	103
2	98	104
2	98	105
2	98	128
2	98	133
2	98	134
2	98	135
2	98	140
2	99	100
2	99	104
2	99	105
2	99	106
2	99	129
2	99	134
2	99	135
2	99	136
2	99	141
2	100	101
2	100	105
2	100	106
2	100	107
2	100	130
2	100	135
2	100	136
2	100	137
2	100	142
2	101	106
2	101	107
2	101	131
2	101	136
2	101	137
2	101	143
2	102	103
2	102	132
2	102	138
2	102	139
2	103	104
2	103	133
2	103	138
2	103	139
2	103	140
2	104	105
2	104	134
2	104	139
2	104	140
2	104	141
2	105	106
2	105	135
2	105	140
2	105	141
2	105	142
2	106	107
2	106	136
2	106	141
2	106	142
2	106	143
2	107	137
2	107	142
2	107	143
2	108	109
2	108	114
2	108	115
2	108	144
2	108	145
2	108	150
2	109	110
2	109	114
2	109	115
2	109	116
2	109	144
2	109	145
2	109	146
2	109	151
2	110	111
2	110	115
2	110	116
2	110	117
2	110	145
2	110	146
2	110	147
2	110	152
2	111	112
2	111	116
2	111	117
2	111	118
2	111	146
2	111	147
2	111	148
2	111	153
2	112	113
2	112	117
2	112	118
2	112	119
2	112	147
2	112	148
2	112	149
2	112	154
2	113	118
2	113	119
2	113	148
2	113	149
2	113	155
2	114	115
2	114	120
2	114	121
2	114	144
2	114	150
2	114	151
2	114	156
2	115	116
2	115	120
2	115	121
2	115	122
2	115	145
2	115	150
2	115	151
2	115	152
2	115	157
2	116	117
2	116	121
2	116	122
2	116	123
2	116	146
2	116	151
2	116	152
2	116	153
2	116	158
2	117	118
2	117	122
2	117	123
2	117	124
2	117	147
2	117	152
2	117	153
2	117	154
2	117	159
2	118	119
2	118	123
2	118	124
2	118	125
2	118	148
2	118	153
2	118	154
2	118	155
2	118	160
2	119	124
2	119	125
2	119	149
2	119	154
2	119	155
2	119	161
2	120	121
2	120	126
2	120	127
2	120	150
2	120	156
2	120	157
2	120	162
2	121	122
2	121	126
2	121	127
2	121	128
2	121	151
2	121	156
2	121	157
2	121	158
2	121	163
2	122	123
2	122	127
2	122	128
2	122	129
2	122	152
2	122	157
2	122	158
2	122	159
2	122	164
2	123	124
2	123	128
2	123	129
2	123	130
2	123	153
2	123	158
2	123	159
2	123	160
2	123	165
2	124	125
2	124	129
2	124	130
2	124	131
2	124	154
2	124	159
2	124	160
2	124	161
2	124	166
2	125	130
2	125	131
2	125	155
2	125	160
2	125	161
2	125	167
2	126	127
2	126	132
2	126	133
2	126	156
2	126	162
2	126	163
2	126	168
2	127	128
2	127	132
2	127	133
2	127	134
2	127	157
2	127	162
2	127	163
2	127	164
2	127	169
2	128	129
2	128	133
2	128	134
2	128	135
2	128	158
2	128	163
2	128	164
2	128	165
2	128	170
2	129	130
2	129	134
2	129	135
2	129	136
2	129	159
2	129	164
2	129	165
2	129	166
2	129	171
2	130	131
2	130	135
2	130	136
2	130	137
2	130	160
2	130	165
2	130	166
2	130	167
2	130	172
2	131	136
2	131	137
2	131	161
2	131	166
2	131	167
2	131	173
2	132	133
2	132	138
2	132	139
2	132	162
2	132	168
2	132	169
2	132	174
2	133	134
2	133	138
2	133	139
2	133	140
2	133	163
2	133	168
2	133	169
2	133	170
2	133	175
2	134	135
2	134	139
2	134	140
2	134	141
2	134	164
2	134	169
2	134	170
2	134	171
2	134	176
2	135	136
2	135	140
2	135	141
2	135	142
2	135	165
2	135	170
2	135	171
2	135	172
2	135	177
2	136	137
2	136	141
2	136	142
2	136	143
2	136	166
2	136	171
2	136	172
2	136	173
2	136	178
2	137	142
2	137	143
2	137	167
2	137	172
2	137	173
2	137	179
2	138	139
2	138	168
2	138	174
2	138	175
2	139	140
2	139	169
2	139	174
2	139	175
2	139	176
2	140	141
2	140	170
2	140	175
2	140	176
2	140	177
2	141	142
2	141	171
2	141	176
2	141	177
2	141	178
2	142	143
2	142	172
2	142	177
2	142	178
2	142	179
2	143	173
2	143	178
2	143	179
2	144	180
2	144	145
2	144	150
2	144	151
2	145	181
2	145	146
2	145	150
2	145	151
2	145	152
2	146	182
2	146	147
2	146	151
2	146	152
2	146	153
2	147	183
2	147	148
2	147	152
2	147	153
2	147	154
2	148	184
2	148	149
2	148	153
2	148	154
2	148	155
2	149	185
2	149	154
2	149	155
2	150	186
2	150	151
2	150	156
2	150	157
2	151	187
2	151	152
2	151	156
2	151	157
2	151	158
2	152	188
2	152	153
2	152	157
2	152	158
2	152	159
2	153	189
2	153	154
2	153	158
2	153	159
2	153	160
2	154	190
2	154	155
2	154	159
2	154	160
2	154	161
2	155	191
2	155	160
2	155	161
2	156	192
2	156	157
2	156	162
2	156	163
2	157	193
2	157	158
2	157	162
2	157	163
2	157	164
2	158	194
2	158	159
2	158	163
2	158	164
2	158	165
2	159	195
2	159	160
2	159	164
2	159	165
2	159	166
2	160	196
2	160	161
2	160	165
2	160	166
2	160	167
2	161	197
2	161	166
2	161	167
2	162	198
2	162	163
2	162	168
2	162	169
2	163	199
2	163	164
2	163	168
2	163	169
2	163	170
2	164	200
2	164	165
2	164	169
2	164	170
2	164	171
2	165	201
2	165	166
2	165	170
2	165	171
2	165	172
2	166	202
2	166	167
2	166	171
2	166	172
2	166	173
2	167	203
2	167	172
2	167	173
2	168	204
2	168	169
2	168	174
2	168	175
2	169	205
2	169	170
2	169	174
2	169	175
2	169	176
2	170	206
2	170	171
2	170	175
2	170	176
2	170	177
2	171	207
2	171	172
2	171	176
2	171	177
2	171	178
2	172	208
2	172	173
2	172	177
2	172	178
2	172	179
2	173	209
2	173	178
2	173	179
2	174	210
2	174	175
2	175	211
2	175	176
2	176	212
2	176	177
2	177	213
2	177	178
2	178	214
2	178	179
2	179	215
POINT_DATA 216
SCALARS size_pb float
LOOKUP_TABLE default
1.000000e+00
1.000000e+00
1.000000e+00
1.000000e+00
1.000000e+00
1.000000e+00
1.000000e+00
1.000000e+00
1.000000e+00
1.000000e+00
1.000000e+00
1.000000e+00
1.000000e+00
1.000000e+00
1.000000e+00
1.000000e+00
1.000000e+00
1.000000e+00
1.000000e+00
1.000000e+00
1.000000e+00
1.000000e+00
1.000000e+00
1.000000e+00
1.000000e+00
1.000000e+00
1.000000e+00
1.000000e+00
1.000000e+00
1.000000e+00
1.000000e+00
1.000000e+00
1.000000e+00
1.000000e+00
1.000000e+00
1.000000e+00
1.000000e+00
1.000000e+00
1.000000e+00
1.000000e+00
1.000000e+00
1.000000e+00
1.000000e+00
1.000000e+00
1.000000e+00
1.000000e+00
1.000000e+00
1.000000e+00
1.000000e+00
1.000000e+00
1.000000e+00
1.000000e+00
1.000000e+00
1.000000e+00
1.000000e+00
1.000000e+00
1.000000e+00
1.000000e+00
1.000000e+00
1.000000e+00
1.000000e+00
1.000000e+00
1.000000e+00
1.000000e+00
1.000000e+00
1.000000e+00
1.000000e+00
1.000000e+00
1.000000e+00
1.000000e+00
1.000000e+00
1.000000e+00
1.000000e+00
1.000000e+00
1.000000e+00
1.000000e+00
1.000000e+00
1.000000e+00
1.000000e+00
1.000000e+00
1.000000e+00
1.000000e+00
1.000000e+00
1.000000e+00
1.000000e+00
1.000000e+00
1.000000e+00
1.000000e+00
1.000000e+00
1.000000e+00
1.000000e+00
1.000000e+00
1.000000e+00
1.000000e+00
1.000000e+00
1.000000e+00
1.000000e+00
1.000000e+00
1.000000e+00
1.000000e+00
1.000000e+00
1.000000e+00
1.000000e+00
1.000000e+00
1.000000e+00
1.000000e+00
1.000000e+00
1.000000e+00
1.000000e+00
1.000000e+00
1.000000e+00
1.000000e+00
1.000000e+00
1.000000e+00
1.000000e+00
1.000000e+00
1.000000e+00
1.000000e+00
1.000000e+00
1.000000e+00
1.000000e+00
1.000000e+00
1.000000e+00
1.000000e+00
1.000000e+00
1.000000e+00
1.000000e+00
1.000000e+00
1.000000e+00
1.000000e+00
1.000000e+00
1.000000e+00
1.000000e+00
1.000000e+00
1.000000e+00
1.000000e+00
1.000000e+00
1.000000e+00
1.000000e+00
1.000000e+00
1.000000e+00
1.000000e+00
1.000000e+00
1.000000e+00
1.000000e+00
1.000000e+00
1.000000e+00
1.000000e+00
1.000000e+00
1.000000e+00
1.000000e+00
1.000000e+00
1.000000e+00
1.000000e+00
1.000000e+00
1.000000e+00
1.000000e+00
1.000000e+00
1.000000e+00
1.000000e+00
1.000000e+00
1.000000e+00
1.000000e+00
1.000000e+00
1.000000e+00
1.000000e+00
1.000000e+00
1.000000e+00
1.000000e+00
1.000000e+00
1.000000e+00
1.000000e+00
1.000000e+00
1.000000e+00
1.000000e+00
1.000000e+00
1.000000e+00
1.000000e+00
1.000000e+00
1.000000e+00
1.000000e+00
1.000000e+00
1.000000e+00
1.000000e+00
1.000000e+00
1.000000e+00
1.000000e+00
1.000000e+00
1.000000e+00
1.000000e+00
1.000000e+00
1.000000e+00
1.000000e+00
1.000000e+00
1.000000e+00
1.000000e+00
1.000000e+00
1.000000e+00
1.000000e+00
1.000000e+00
1.000000e+00
1.000000e+00
1.000000e+00
1.000000e+00
1.000000e+00
1.000000e+00
1.000000e+00
1.000000e+00
1.000000e+00
1.000000e+00
1.000000e+00
1.000000e+00
1.000000e+00
1.000000e+00
1.000000e+00
1.000000e+00
